 vasp.5.4.4.18Apr17-6-g9f103f2a35 (build Sep 16 2021 13:51:27) complex          
  
 executed on             LinuxIFC date 2023.03.16  12:59:54
 running on   24 total cores
 distrk:  each k-point on   24 cores,    1 groups
 distr:  one band on NCORES_PER_BAND=  24 cores,    1 groups


--------------------------------------------------------------------------------------------------------


 INCAR:
 POTCAR:    PAW_PBE Sn 08Apr2002                  
 POTCAR:    PAW_PBE Se 06Sep2000                  

 ----------------------------------------------------------------------------- 
|                                                                             |
|           W    W    AA    RRRRR   N    N  II  N    N   GGGG   !!!           |
|           W    W   A  A   R    R  NN   N  II  NN   N  G    G  !!!           |
|           W    W  A    A  R    R  N N  N  II  N N  N  G       !!!           |
|           W WW W  AAAAAA  RRRRR   N  N N  II  N  N N  G  GGG   !            |
|           WW  WW  A    A  R   R   N   NN  II  N   NN  G    G                |
|           W    W  A    A  R    R  N    N  II  N    N   GGGG   !!!           |
|                                                                             |
|      For optimal performance we recommend to set                            |
|        NCORE= 4 - approx SQRT( number of cores)                             |
|      NCORE specifies how many cores store one orbital (NPAR=cpu/NCORE).     |
|      This setting can  greatly improve the performance of VASP for DFT.     |
|      The default,   NCORE=1            might be grossly inefficient         |
|      on modern multi-core architectures or massively parallel machines.     |
|      Do your own testing !!!!                                               |
|      Unfortunately you need to use the default for GW and RPA calculations. |
|      (for HF NCORE is supported but not extensively tested yet)             |
|                                                                             |
 ----------------------------------------------------------------------------- 

 POTCAR:    PAW_PBE Sn 08Apr2002                  
   VRHFIN =Sn: s2p2                                                             
   LEXCH  = PE                                                                  
   EATOM  =    94.0860 eV,    6.9151 Ry                                         
                                                                                
   TITEL  = PAW_PBE Sn 08Apr2002                                                
   LULTRA =        F    use ultrasoft PP ?                                      
   IUNSCR =        1    unscreen: 0-lin 1-nonlin 2-no                           
   RPACOR =    2.000    partial core radius                                     
   POMASS =  118.710; ZVAL   =    4.000    mass and valenz                      
   RCORE  =    3.000    outmost cutoff radius                                   
   RWIGS  =    2.960; RWIGS  =    1.566    wigner-seitz radius (au A)           
   ENMAX  =  103.236; ENMIN  =   77.427 eV                                      
   ICORE  =        3    local potential                                         
   LCOR   =        T    correct aug charges                                     
   LPAW   =        T    paw PP                                                  
   EAUG   =  263.585                                                            
   DEXC   =    0.000                                                            
   RMAX   =    3.078    core radius for proj-oper                               
   RAUG   =    1.300    factor for augmentation sphere                          
   RDEP   =    3.022    radius for radial grids                                 
   RDEPT  =    2.655    core radius for aug-charge                              
                                                                                
   Atomic configuration                                                         
   13 entries                                                                   
     n  l   j            E        occ.                                          
     1  0  0.50    -29007.2859   2.0000                                         
     2  0  0.50     -4378.8056   2.0000                                         
     2  1  1.50     -3930.4293   6.0000                                         
     3  0  0.50      -845.0264   2.0000                                         
     3  1  1.50      -698.5725   6.0000                                         
     3  2  2.50      -473.2839  10.0000                                         
     4  0  0.50      -133.9036   2.0000                                         
     4  1  1.50       -89.6752   6.0000                                         
     4  2  2.50       -25.8375  10.0000                                         
     5  0  0.50       -10.5484   2.0000                                         
     5  1  0.50        -3.6940   2.0000                                         
     5  2  1.50        -1.3606   0.0000                                         
     4  3  2.50        -4.0817   0.0000                                         
   Description                                                                  
     l       E           TYP  RCUT    TYP  RCUT                                 
     0    -10.5483727     23  3.000                                             
     0     27.2116520     23  3.000                                             
     1     -3.6939829     23  3.000                                             
     1      1.9821976     23  3.000                                             
     2     -1.3605826     23  3.000                                             
     3     -2.7211652     23  3.000                                             
  local pseudopotential read in
  partial core-charges read in
  partial kinetic energy density read in
  atomic valenz-charges read in
  non local Contribution for L=           0  read in
    real space projection operators read in
  non local Contribution for L=           0  read in
    real space projection operators read in
  non local Contribution for L=           1  read in
    real space projection operators read in
  non local Contribution for L=           1  read in
    real space projection operators read in
  non local Contribution for L=           2  read in
    real space projection operators read in
    PAW grid and wavefunctions read in
 
   number of l-projection  operators is LMAX  =           5
   number of lm-projection operators is LMMAX =          13
 
 POTCAR:    PAW_PBE Se 06Sep2000                  
   VRHFIN =Se: s2p4                                                             
   LEXCH  = PE                                                                  
   EATOM  =   257.1286 eV,   18.8984 Ry                                         
                                                                                
   TITEL  = PAW_PBE Se 06Sep2000                                                
   LULTRA =        F    use ultrasoft PP ?                                      
   IUNSCR =        1    unscreen: 0-lin 1-nonlin 2-no                           
   RPACOR =    1.900    partial core radius                                     
   POMASS =   78.960; ZVAL   =    6.000    mass and valenz                      
   RCORE  =    2.100    outmost cutoff radius                                   
   RWIGS  =    2.200; RWIGS  =    1.164    wigner-seitz radius (au A)           
   ENMAX  =  211.555; ENMIN  =  158.666 eV                                      
   ICORE  =        3    local potential                                         
   LCOR   =        T    correct aug charges                                     
   LPAW   =        T    paw PP                                                  
   EAUG   =  446.842                                                            
   DEXC   =    0.000                                                            
   RMAX   =    2.147    core radius for proj-oper                               
   RAUG   =    1.300    factor for augmentation sphere                          
   RDEP   =    2.177    radius for radial grids                                 
   RDEPT  =    1.928    core radius for aug-charge                              
                                                                                
   Atomic configuration                                                         
   10 entries                                                                   
     n  l   j            E        occ.                                          
     1  0  0.50    -12503.4787   2.0000                                         
     2  0  0.50     -1606.9547   2.0000                                         
     2  1  1.50     -1413.3140   6.0000                                         
     3  0  0.50      -213.4885   2.0000                                         
     3  1  1.50      -152.9538   6.0000                                         
     3  2  2.50       -53.1221  10.0000                                         
     4  0  0.50       -17.2865   2.0000                                         
     4  1  0.50        -6.5110   4.0000                                         
     4  2  2.50        -6.8029   0.0000                                         
     4  3  2.50        -6.8029   0.0000                                         
   Description                                                                  
     l       E           TYP  RCUT    TYP  RCUT                                 
     0    -17.2865377     23  2.100                                             
     0    -15.3094411     23  2.100                                             
     1     -6.5110275     23  2.100                                             
     1     -0.0695192     23  2.100                                             
     2     -6.8029130     23  2.100                                             
     3     -1.3605826      7  2.100                                             
  local pseudopotential read in
  partial core-charges read in
  partial kinetic energy density read in
  atomic valenz-charges read in
  non local Contribution for L=           0  read in
    real space projection operators read in
  non local Contribution for L=           0  read in
    real space projection operators read in
  non local Contribution for L=           1  read in
    real space projection operators read in
  non local Contribution for L=           1  read in
    real space projection operators read in
  non local Contribution for L=           2  read in
    real space projection operators read in
    PAW grid and wavefunctions read in
 
   number of l-projection  operators is LMAX  =           5
   number of lm-projection operators is LMMAX =          13
 
 WARNING: PSMAXN for non-local potential too small
          PSMAXN should be >   12.5490833729506       NTYP=           1
  PAW_PBE Sn 08Apr2002                  :
 energy of atom  1       EATOM=  -94.0860
 kinetic energy error for atom=    0.0000 (will be added to EATOM!!)
  PAW_PBE Se 06Sep2000                  :
 energy of atom  2       EATOM= -257.1286
 kinetic energy error for atom=    0.0006 (will be added to EATOM!!)
 
 
 POSCAR:  POSCAR with strain of 0.007            
  positions in direct lattice
  No initial velocities read in
 exchange correlation table for  LEXCH =        8
   RHO(1)=    0.500       N(1)  =     2000
   RHO(2)=  100.500       N(2)  =     4000
 


--------------------------------------------------------------------------------------------------------


 ion  position               nearest neighbor table
   1  0.581  0.750  0.569-   4 2.75   3 2.91   3 2.93   3 3.21   3 3.23
   2  0.081  0.250  0.431-   3 2.74   4 2.91   4 2.93   4 3.21   4 3.23
   3  0.033  0.250  0.567-   2 2.74   1 2.91   1 2.93   1 3.21   1 3.23
   4  0.533  0.750  0.433-   1 2.75   2 2.91   2 2.93   2 3.21   2 3.23
 

IMPORTANT INFORMATION: All symmetrisations will be switched off!
NOSYMM: (Re-)initialisation of all symmetry stuff for point group C_1.

 
 
 KPOINTS: KMesh Grid                              

Automatic generation of k-mesh.
Space group operators:
 irot       det(A)        alpha          n_x          n_y          n_z        tau_x        tau_y        tau_z
    1     1.000000     0.000001     1.000000     0.000000     0.000000     0.000000     0.000000     0.000000
 
 Subroutine IBZKPT returns following result:
 ===========================================
 
 Found    113 irreducible k-points:
 
 Following reciprocal coordinates:
            Coordinates               Weight
  0.000000  0.000000  0.000000      1.000000
  0.066667  0.000000  0.000000      2.000000
  0.133333  0.000000  0.000000      2.000000
  0.200000  0.000000  0.000000      2.000000
  0.266667  0.000000 -0.000000      2.000000
  0.333333  0.000000 -0.000000      2.000000
  0.400000  0.000000  0.000000      2.000000
  0.466667  0.000000 -0.000000      2.000000
 -0.000000  0.066667 -0.000000      2.000000
  0.066667  0.066667  0.000000      2.000000
  0.133333  0.066667  0.000000      2.000000
  0.200000  0.066667 -0.000000      2.000000
  0.266667  0.066667 -0.000000      2.000000
  0.333333  0.066667 -0.000000      2.000000
  0.400000  0.066667  0.000000      2.000000
  0.466667  0.066667 -0.000000      2.000000
 -0.466667  0.066667  0.000000      2.000000
 -0.400000  0.066667 -0.000000      2.000000
 -0.333333  0.066667  0.000000      2.000000
 -0.266667  0.066667  0.000000      2.000000
 -0.200000  0.066667 -0.000000      2.000000
 -0.133333  0.066667  0.000000      2.000000
 -0.066667  0.066667 -0.000000      2.000000
 -0.000000  0.133333 -0.000000      2.000000
  0.066667  0.133333  0.000000      2.000000
  0.133333  0.133333 -0.000000      2.000000
  0.200000  0.133333  0.000000      2.000000
  0.266667  0.133333 -0.000000      2.000000
  0.333333  0.133333 -0.000000      2.000000
  0.400000  0.133333 -0.000000      2.000000
  0.466667  0.133333 -0.000000      2.000000
 -0.466667  0.133333 -0.000000      2.000000
 -0.400000  0.133333 -0.000000      2.000000
 -0.333333  0.133333  0.000000      2.000000
 -0.266667  0.133333  0.000000      2.000000
 -0.200000  0.133333  0.000000      2.000000
 -0.133333  0.133333  0.000000      2.000000
 -0.066667  0.133333  0.000000      2.000000
 -0.000000  0.200000  0.000000      2.000000
  0.066667  0.200000 -0.000000      2.000000
  0.133333  0.200000  0.000000      2.000000
  0.200000  0.200000 -0.000000      2.000000
  0.266667  0.200000  0.000000      2.000000
  0.333333  0.200000  0.000000      2.000000
  0.400000  0.200000  0.000000      2.000000
  0.466667  0.200000 -0.000000      2.000000
 -0.466667  0.200000  0.000000      2.000000
 -0.400000  0.200000  0.000000      2.000000
 -0.333333  0.200000  0.000000      2.000000
 -0.266667  0.200000  0.000000      2.000000
 -0.200000  0.200000 -0.000000      2.000000
 -0.133333  0.200000 -0.000000      2.000000
 -0.066667  0.200000  0.000000      2.000000
 -0.000000  0.266667 -0.000000      2.000000
  0.066667  0.266667 -0.000000      2.000000
  0.133333  0.266667  0.000000      2.000000
  0.200000  0.266667 -0.000000      2.000000
  0.266667  0.266667 -0.000000      2.000000
  0.333333  0.266667 -0.000000      2.000000
  0.400000  0.266667  0.000000      2.000000
  0.466667  0.266667 -0.000000      2.000000
 -0.466667  0.266667  0.000000      2.000000
 -0.400000  0.266667  0.000000      2.000000
 -0.333333  0.266667  0.000000      2.000000
 -0.266667  0.266667  0.000000      2.000000
 -0.200000  0.266667  0.000000      2.000000
 -0.133333  0.266667  0.000000      2.000000
 -0.066667  0.266667 -0.000000      2.000000
 -0.000000  0.333333 -0.000000      2.000000
  0.066667  0.333333 -0.000000      2.000000
  0.133333  0.333333 -0.000000      2.000000
  0.200000  0.333333 -0.000000      2.000000
  0.266667  0.333333  0.000000      2.000000
  0.333333  0.333333 -0.000000      2.000000
  0.400000  0.333333 -0.000000      2.000000
  0.466667  0.333333  0.000000      2.000000
 -0.466667  0.333333  0.000000      2.000000
 -0.400000  0.333333  0.000000      2.000000
 -0.333333  0.333333  0.000000      2.000000
 -0.266667  0.333333  0.000000      2.000000
 -0.200000  0.333333  0.000000      2.000000
 -0.133333  0.333333  0.000000      2.000000
 -0.066667  0.333333 -0.000000      2.000000
 -0.000000  0.400000  0.000000      2.000000
  0.066667  0.400000  0.000000      2.000000
  0.133333  0.400000  0.000000      2.000000
  0.200000  0.400000  0.000000      2.000000
  0.266667  0.400000 -0.000000      2.000000
  0.333333  0.400000 -0.000000      2.000000
  0.400000  0.400000  0.000000      2.000000
  0.466667  0.400000  0.000000      2.000000
 -0.466667  0.400000  0.000000      2.000000
 -0.400000  0.400000 -0.000000      2.000000
 -0.333333  0.400000  0.000000      2.000000
 -0.266667  0.400000  0.000000      2.000000
 -0.200000  0.400000  0.000000      2.000000
 -0.133333  0.400000  0.000000      2.000000
 -0.066667  0.400000  0.000000      2.000000
 -0.000000  0.466667 -0.000000      2.000000
  0.066667  0.466667  0.000000      2.000000
  0.133333  0.466667 -0.000000      2.000000
  0.200000  0.466667  0.000000      2.000000
  0.266667  0.466667  0.000000      2.000000
  0.333333  0.466667 -0.000000      2.000000
  0.400000  0.466667 -0.000000      2.000000
  0.466667  0.466667  0.000000      2.000000
 -0.466667  0.466667  0.000000      2.000000
 -0.400000  0.466667 -0.000000      2.000000
 -0.333333  0.466667  0.000000      2.000000
 -0.266667  0.466667  0.000000      2.000000
 -0.200000  0.466667  0.000000      2.000000
 -0.133333  0.466667  0.000000      2.000000
 -0.066667  0.466667  0.000000      2.000000
 
 Following cartesian coordinates:
            Coordinates               Weight
  0.000000  0.000000  0.000000      1.000000
  0.015213 -0.000057 -0.000056      2.000000
  0.030426 -0.000114 -0.000113      2.000000
  0.045639 -0.000171 -0.000169      2.000000
  0.060852 -0.000227 -0.000226      2.000000
  0.076065 -0.000284 -0.000282      2.000000
  0.091278 -0.000341 -0.000338      2.000000
  0.106491 -0.000398 -0.000395      2.000000
 -0.000058  0.015531 -0.000058      2.000000
  0.015155  0.015475 -0.000114      2.000000
  0.030368  0.015418 -0.000170      2.000000
  0.045581  0.015361 -0.000227      2.000000
  0.060794  0.015304 -0.000283      2.000000
  0.076007  0.015247 -0.000340      2.000000
  0.091220  0.015190 -0.000396      2.000000
  0.106433  0.015134 -0.000452      2.000000
 -0.106549  0.015929  0.000337      2.000000
 -0.091336  0.015873  0.000281      2.000000
 -0.076123  0.015816  0.000224      2.000000
 -0.060910  0.015759  0.000168      2.000000
 -0.045697  0.015702  0.000112      2.000000
 -0.030484  0.015645  0.000055      2.000000
 -0.015271  0.015588 -0.000001      2.000000
 -0.000116  0.031063 -0.000115      2.000000
  0.015097  0.031006 -0.000172      2.000000
  0.030310  0.030949 -0.000228      2.000000
  0.045523  0.030892 -0.000284      2.000000
  0.060736  0.030836 -0.000341      2.000000
  0.075949  0.030779 -0.000397      2.000000
  0.091162  0.030722 -0.000454      2.000000
  0.106375  0.030665 -0.000510      2.000000
 -0.106607  0.031461  0.000280      2.000000
 -0.091394  0.031404  0.000223      2.000000
 -0.076181  0.031347  0.000167      2.000000
 -0.060968  0.031290  0.000110      2.000000
 -0.045755  0.031233  0.000054      2.000000
 -0.030542  0.031177 -0.000002      2.000000
 -0.015329  0.031120 -0.000059      2.000000
 -0.000174  0.046594 -0.000173      2.000000
  0.015039  0.046538 -0.000229      2.000000
  0.030252  0.046481 -0.000286      2.000000
  0.045465  0.046424 -0.000342      2.000000
  0.060678  0.046367 -0.000398      2.000000
  0.075891  0.046310 -0.000455      2.000000
  0.091104  0.046253 -0.000511      2.000000
  0.106316  0.046197 -0.000568      2.000000
 -0.106665  0.046992  0.000222      2.000000
 -0.091452  0.046935  0.000166      2.000000
 -0.076239  0.046879  0.000109      2.000000
 -0.061026  0.046822  0.000053      2.000000
 -0.045813  0.046765 -0.000004      2.000000
 -0.030600  0.046708 -0.000060      2.000000
 -0.015387  0.046651 -0.000116      2.000000
 -0.000232  0.062126 -0.000230      2.000000
  0.014981  0.062069 -0.000287      2.000000
  0.030194  0.062012 -0.000343      2.000000
  0.045407  0.061955 -0.000400      2.000000
  0.060620  0.061899 -0.000456      2.000000
  0.075833  0.061842 -0.000512      2.000000
  0.091046  0.061785 -0.000569      2.000000
  0.106258  0.061728 -0.000625      2.000000
 -0.106723  0.062524  0.000165      2.000000
 -0.091510  0.062467  0.000108      2.000000
 -0.076297  0.062410  0.000052      2.000000
 -0.061084  0.062353 -0.000005      2.000000
 -0.045871  0.062296 -0.000061      2.000000
 -0.030658  0.062240 -0.000118      2.000000
 -0.015445  0.062183 -0.000174      2.000000
 -0.000290  0.077657 -0.000288      2.000000
  0.014923  0.077601 -0.000344      2.000000
  0.030136  0.077544 -0.000401      2.000000
  0.045349  0.077487 -0.000457      2.000000
  0.060562  0.077430 -0.000514      2.000000
  0.075775  0.077373 -0.000570      2.000000
  0.090988  0.077316 -0.000626      2.000000
  0.106200  0.077260 -0.000683      2.000000
 -0.106781  0.078055  0.000107      2.000000
 -0.091568  0.077998  0.000051      2.000000
 -0.076355  0.077942 -0.000006      2.000000
 -0.061142  0.077885 -0.000062      2.000000
 -0.045929  0.077828 -0.000119      2.000000
 -0.030716  0.077771 -0.000175      2.000000
 -0.015503  0.077714 -0.000232      2.000000
 -0.000348  0.093189 -0.000346      2.000000
  0.014865  0.093132 -0.000402      2.000000
  0.030078  0.093075 -0.000458      2.000000
  0.045291  0.093018 -0.000515      2.000000
  0.060504  0.092962 -0.000571      2.000000
  0.075717  0.092905 -0.000628      2.000000
  0.090929  0.092848 -0.000684      2.000000
  0.106142  0.092791 -0.000740      2.000000
 -0.106839  0.093587  0.000049      2.000000
 -0.091626  0.093530 -0.000007      2.000000
 -0.076413  0.093473 -0.000063      2.000000
 -0.061200  0.093416 -0.000120      2.000000
 -0.045987  0.093359 -0.000176      2.000000
 -0.030774  0.093303 -0.000233      2.000000
 -0.015561  0.093246 -0.000289      2.000000
 -0.000406  0.108720 -0.000403      2.000000
  0.014807  0.108664 -0.000460      2.000000
  0.030020  0.108607 -0.000516      2.000000
  0.045233  0.108550 -0.000572      2.000000
  0.060446  0.108493 -0.000629      2.000000
  0.075659  0.108436 -0.000685      2.000000
  0.090871  0.108379 -0.000742      2.000000
  0.106084  0.108322 -0.000798      2.000000
 -0.106897  0.109118 -0.000008      2.000000
 -0.091684  0.109061 -0.000065      2.000000
 -0.076471  0.109005 -0.000121      2.000000
 -0.061258  0.108948 -0.000178      2.000000
 -0.046045  0.108891 -0.000234      2.000000
 -0.030832  0.108834 -0.000290      2.000000
 -0.015619  0.108777 -0.000347      2.000000
 


--------------------------------------------------------------------------------------------------------




 Dimension of arrays:
   k-points           NKPTS =    113   k-points in BZ     NKDIM =    113   number of bands    NBANDS=     14
   number of dos      NEDOS =    301   number of ions     NIONS =      4
   non local maximal  LDIM  =      5   non local SUM 2l+1 LMDIM =     13
   total plane-waves  NPLWV = 209952
   max r-space proj   IRMAX =      1   max aug-charges    IRDMAX=  53512
   dimension x,y,z NGX =    36 NGY =   36 NGZ =  162
   dimension x,y,z NGXF=    72 NGYF=   72 NGZF=  324
   support grid    NGXF=    72 NGYF=   72 NGZF=  324
   ions per type =               2   2
   NGX,Y,Z   is equivalent  to a cutoff of  13.66, 13.94, 13.37 a.u.
   NGXF,Y,Z  is equivalent  to a cutoff of  27.31, 27.88, 26.73 a.u.

 SYSTEM =  SnSe                                    
 POSCAR =   POSCAR with strain of 0.007            

 Startparameter for this run:
   NWRITE =      2    write-flag & timer
   PREC   = accura    normal or accurate (medium, high low for compatibility)
   ISTART =      0    job   : 0-new  1-cont  2-samecut
   ICHARG =      2    charge: 1-file 2-atom 10-const
   ISPIN  =      1    spin polarized calculation?
   LNONCOLLINEAR =      F non collinear calculations
   LSORBIT =      F    spin-orbit coupling
   INIWAV =      1    electr: 0-lowe 1-rand  2-diag
   LASPH  =      F    aspherical Exc in radial PAW
   METAGGA=      F    non-selfconsistent MetaGGA calc.

 Electronic Relaxation 1
   ENCUT  =  600.0 eV  44.10 Ry    6.64 a.u.   8.75  8.57 40.25*2*pi/ulx,y,z
   ENINI  =  600.0     initial cutoff
   ENAUG  =  446.8 eV  augmentation charge cutoff
   NELM   =     60;   NELMIN=  2; NELMDL= -5     # of ELM steps 
   EDIFF  = 0.1E-05   stopping-criterion for ELM
   LREAL  =      F    real-space projection
   NLSPLINE    = F    spline interpolate recip. space projectors
   LCOMPAT=      F    compatible to vasp.4.4
   GGA_COMPAT  = T    GGA compatible to vasp.4.4-vasp.4.6
   LMAXPAW     = -100 max onsite density
   LMAXMIX     =    2 max onsite mixed and CHGCAR
   VOSKOWN=      0    Vosko Wilk Nusair interpolation
   ROPT   =    0.00000   0.00000
 Ionic relaxation
   EDIFFG = -.1E-02   stopping-criterion for IOM
   NSW    =    100    number of steps for IOM
   NBLOCK =      1;   KBLOCK =    100    inner block; outer block 
   IBRION =      2    ionic relax: 0-MD 1-quasi-New 2-CG
   NFREE  =      1    steps in history (QN), initial steepest desc. (CG)
   ISIF   =      2    stress and relaxation
   IWAVPR =     11    prediction:  0-non 1-charg 2-wave 3-comb
   ISYM   =      0    0-nonsym 1-usesym 2-fastsym
   LCORR  =      T    Harris-Foulkes like correction to forces

   POTIM  = 0.5000    time-step for ionic-motion
   TEIN   =    0.0    initial temperature
   TEBEG  =    0.0;   TEEND  =   0.0 temperature during run
   SMASS  =  -3.00    Nose mass-parameter (am)
   estimated Nose-frequenzy (Omega)   =  0.10E-29 period in steps =****** mass=  -0.439E-27a.u.
   SCALEE = 1.0000    scale energy and forces
   NPACO  =    256;   APACO  = 16.0  distance and # of slots for P.C.
   PSTRESS=    0.0 pullay stress

  Mass of Ions in am
   POMASS = 118.71 78.96
  Ionic Valenz
   ZVAL   =   4.00  6.00
  Atomic Wigner-Seitz radii
   RWIGS  =  -1.00 -1.00
  virtual crystal weights 
   VCA    =   1.00  1.00
   NELECT =      20.0000    total number of electrons
   NUPDOWN=      -1.0000    fix difference up-down

 DOS related values:
   EMIN   =  10.00;   EMAX   =-10.00  energy-range for DOS
   EFERMI =   0.00
   ISMEAR =     0;   SIGMA  =   0.10  broadening in eV -4-tet -1-fermi 0-gaus

 Electronic relaxation 2 (details)
   IALGO  =     38    algorithm
   LDIAG  =      T    sub-space diagonalisation (order eigenvalues)
   LSUBROT=      F    optimize rotation matrix (better conditioning)
   TURBO    =      0    0=normal 1=particle mesh
   IRESTART =      0    0=no restart 2=restart with 2 vectors
   NREBOOT  =      0    no. of reboots
   NMIN     =      0    reboot dimension
   EREF     =   0.00    reference energy to select bands
   IMIX   =      4    mixing-type and parameters
     AMIX     =   0.40;   BMIX     =  1.00
     AMIX_MAG =   1.60;   BMIX_MAG =  1.00
     AMIN     =   0.10
     WC   =   100.;   INIMIX=   1;  MIXPRE=   1;  MAXMIX= -45

 Intra band minimization:
   WEIMIN = 0.0010     energy-eigenvalue tresh-hold
   EBREAK =  0.18E-07  absolut break condition
   DEPER  =   0.30     relativ break condition  

   TIME   =   0.40     timestep for ELM

  volume/ion in A,a.u.               =      94.76       639.45
  Fermi-wavevector in a.u.,A,eV,Ry     =   0.614036  1.160360  5.129946  0.377040
  Thomas-Fermi vector in A             =   1.670902
 
 Write flags
   LWAVE        =      T    write WAVECAR
   LDOWNSAMPLE  =      F    k-point downsampling of WAVECAR
   LCHARG       =      T    write CHGCAR
   LVTOT        =      F    write LOCPOT, total local potential
   LVHAR        =      F    write LOCPOT, Hartree potential only
   LELF         =      F    write electronic localiz. function (ELF)
   LORBIT       =      0    0 simple, 1 ext, 2 COOP (PROOUT), +10 PAW based schemes


 Dipole corrections
   LMONO  =      F    monopole corrections only (constant potential shift)
   LDIPOL =      F    correct potential (dipole corrections)
   IDIPOL =      0    1-x, 2-y, 3-z, 4-all directions 
   EPSILON=  1.0000000 bulk dielectric constant

 Exchange correlation treatment:
   GGA     =    PE    GGA type
   LEXCH   =     8    internal setting for exchange type
   VOSKOWN=      0    Vosko Wilk Nusair interpolation
   LHFCALC =     F    Hartree Fock is set to
   LHFONE  =     F    Hartree Fock one center treatment
   AEXX    =    0.0000 exact exchange contribution

 Linear response parameters
   LEPSILON=     F    determine dielectric tensor
   LRPA    =     F    only Hartree local field effects (RPA)
   LNABLA  =     F    use nabla operator in PAW spheres
   LVEL    =     F    velocity operator in full k-point grid
   LINTERFAST=   F  fast interpolation
   KINTER  =     0    interpolate to denser k-point grid
   CSHIFT  =0.1000    complex shift for real part using Kramers Kronig
   OMEGAMAX=  -1.0    maximum frequency
   DEG_THRESHOLD= 0.2000000E-02 threshold for treating states as degnerate
   RTIME   =   -0.100 relaxation time in fs
  (WPLASMAI=    0.000 imaginary part of plasma frequency in eV, 0.658/RTIME)
   DFIELD  = 0.0000000 0.0000000 0.0000000 field for delta impulse in time
 
 Orbital magnetization related:
   ORBITALMAG=     F  switch on orbital magnetization
   LCHIMAG   =     F  perturbation theory with respect to B field
   DQ        =  0.001000  dq finite difference perturbation B field
   LLRAUG    =     F  two centre corrections for induced B field



--------------------------------------------------------------------------------------------------------


 conjugate gradient relaxation of ions
 charge density and potential will be updated during run
 non-spin polarized calculation
 Variant of blocked Davidson
 Davidson routine will perform the subspace rotation
 perform sub-space diagonalisation
    after iterative eigenvector-optimisation
 modified Broyden-mixing scheme, WC =      100.0
 initial mixing is a Kerker type mixing with AMIX =  0.4000 and BMIX =      1.0000
 Hartree-type preconditioning will be used
 using additional bands            4
 reciprocal scheme for non local part
 use partial core corrections
 calculate Harris-corrections to forces 
   (improved forces if not selfconsistent)
 use gradient corrections 
 use of overlap-Matrix (Vanderbilt PP)
 Gauss-broadening in eV      SIGMA  =   0.10


--------------------------------------------------------------------------------------------------------


  energy-cutoff  :      600.00
  volume of cell :      379.03
      direct lattice vectors                 reciprocal lattice vectors
     4.382356765  0.016433838  0.016433838     0.228194091 -0.000852555 -0.000846184
     0.016096792  4.292477857  0.016096792    -0.000870406  0.232972178 -0.000863902
     0.075000000  0.075000000 20.150000000    -0.000185414 -0.000185414  0.049629172

  length of vectors
     4.382418391  4.292538220 20.150279154     0.228197252  0.232975406  0.049629865


 
 k-points in units of 2pi/SCALE and weight: KMesh Grid                              
   0.00000000  0.00000000  0.00000000       0.004
   0.01521294 -0.00005684 -0.00005641       0.009
   0.03042588 -0.00011367 -0.00011282       0.009
   0.04563882 -0.00017051 -0.00016924       0.009
   0.06085176 -0.00022735 -0.00022565       0.009
   0.07606470 -0.00028418 -0.00028206       0.009
   0.09127764 -0.00034102 -0.00033847       0.009
   0.10649058 -0.00039786 -0.00039489       0.009
  -0.00005803  0.01553148 -0.00005759       0.009
   0.01515491  0.01547464 -0.00011401       0.009
   0.03036785  0.01541780 -0.00017042       0.009
   0.04558079  0.01536097 -0.00022683       0.009
   0.06079373  0.01530413 -0.00028324       0.009
   0.07600667  0.01524729 -0.00033965       0.009
   0.09121961  0.01519046 -0.00039607       0.009
   0.10643255  0.01513362 -0.00045248       0.009
  -0.10654860  0.01592934  0.00033729       0.009
  -0.09133566  0.01587250  0.00028088       0.009
  -0.07612272  0.01581566  0.00022447       0.009
  -0.06090978  0.01575883  0.00016806       0.009
  -0.04569685  0.01570199  0.00011164       0.009
  -0.03048391  0.01564515  0.00005523       0.009
  -0.01527097  0.01558832 -0.00000118       0.009
  -0.00011605  0.03106296 -0.00011519       0.009
   0.01509689  0.03100612 -0.00017160       0.009
   0.03030982  0.03094928 -0.00022801       0.009
   0.04552276  0.03089245 -0.00028442       0.009
   0.06073570  0.03083561 -0.00034084       0.009
   0.07594864  0.03077877 -0.00039725       0.009
   0.09116158  0.03072194 -0.00045366       0.009
   0.10637452  0.03066510 -0.00051007       0.009
  -0.10660663  0.03146082  0.00027970       0.009
  -0.09139369  0.03140398  0.00022329       0.009
  -0.07618075  0.03134714  0.00016687       0.009
  -0.06096781  0.03129031  0.00011046       0.009
  -0.04575487  0.03123347  0.00005405       0.009
  -0.03054193  0.03117663 -0.00000236       0.009
  -0.01532899  0.03111979 -0.00005877       0.009
  -0.00017408  0.04659444 -0.00017278       0.009
   0.01503886  0.04653760 -0.00022919       0.009
   0.03025180  0.04648076 -0.00028561       0.009
   0.04546474  0.04642392 -0.00034202       0.009
   0.06067768  0.04636709 -0.00039843       0.009
   0.07589062  0.04631025 -0.00045484       0.009
   0.09110356  0.04625341 -0.00051125       0.009
   0.10631649  0.04619658 -0.00056767       0.009
  -0.10666466  0.04699229  0.00022211       0.009
  -0.09145172  0.04693546  0.00016569       0.009
  -0.07623878  0.04687862  0.00010928       0.009
  -0.06102584  0.04682178  0.00005287       0.009
  -0.04581290  0.04676495 -0.00000354       0.009
  -0.03059996  0.04670811 -0.00005996       0.009
  -0.01538702  0.04665127 -0.00011637       0.009
  -0.00023211  0.06212591 -0.00023037       0.009
   0.01498083  0.06206908 -0.00028679       0.009
   0.03019377  0.06201224 -0.00034320       0.009
   0.04540671  0.06195540 -0.00039961       0.009
   0.06061965  0.06189857 -0.00045602       0.009
   0.07583259  0.06184173 -0.00051244       0.009
   0.09104553  0.06178489 -0.00056885       0.009
   0.10625847  0.06172806 -0.00062526       0.009
  -0.10672268  0.06252377  0.00016451       0.009
  -0.09150974  0.06246694  0.00010810       0.009
  -0.07629681  0.06241010  0.00005169       0.009
  -0.06108387  0.06235326 -0.00000472       0.009
  -0.04587093  0.06229643 -0.00006114       0.009
  -0.03065799  0.06223959 -0.00011755       0.009
  -0.01544505  0.06218275 -0.00017396       0.009
  -0.00029014  0.07765739 -0.00028797       0.009
   0.01492280  0.07760056 -0.00034438       0.009
   0.03013574  0.07754372 -0.00040079       0.009
   0.04534868  0.07748688 -0.00045720       0.009
   0.06056162  0.07743004 -0.00051362       0.009
   0.07577456  0.07737321 -0.00057003       0.009
   0.09098750  0.07731637 -0.00062644       0.009
   0.10620044  0.07725953 -0.00068285       0.009
  -0.10678071  0.07805525  0.00010692       0.009
  -0.09156777  0.07799841  0.00005051       0.009
  -0.07635483  0.07794158 -0.00000591       0.009
  -0.06114189  0.07788474 -0.00006232       0.009
  -0.04592895  0.07782790 -0.00011873       0.009
  -0.03071601  0.07777107 -0.00017514       0.009
  -0.01550307  0.07771423 -0.00023156       0.009
  -0.00034816  0.09318887 -0.00034556       0.009
   0.01486478  0.09313203 -0.00040197       0.009
   0.03007772  0.09307520 -0.00045839       0.009
   0.04529066  0.09301836 -0.00051480       0.009
   0.06050360  0.09296152 -0.00057121       0.009
   0.07571653  0.09290469 -0.00062762       0.009
   0.09092947  0.09284785 -0.00068403       0.009
   0.10614241  0.09279101 -0.00074045       0.009
  -0.10683874  0.09358673  0.00004933       0.009
  -0.09162580  0.09352989 -0.00000709       0.009
  -0.07641286  0.09347306 -0.00006350       0.009
  -0.06119992  0.09341622 -0.00011991       0.009
  -0.04598698  0.09335938 -0.00017632       0.009
  -0.03077404  0.09330255 -0.00023274       0.009
  -0.01556110  0.09324571 -0.00028915       0.009
  -0.00040619  0.10872035 -0.00040315       0.009
   0.01480675  0.10866351 -0.00045957       0.009
   0.03001969  0.10860668 -0.00051598       0.009
   0.04523263  0.10854984 -0.00057239       0.009
   0.06044557  0.10849300 -0.00062880       0.009
   0.07565851  0.10843617 -0.00068522       0.009
   0.09087145  0.10837933 -0.00074163       0.009
   0.10608439  0.10832249 -0.00079804       0.009
  -0.10689677  0.10911821 -0.00000827       0.009
  -0.09168383  0.10906137 -0.00006468       0.009
  -0.07647089  0.10900453 -0.00012109       0.009
  -0.06125795  0.10894770 -0.00017751       0.009
  -0.04604501  0.10889086 -0.00023392       0.009
  -0.03083207  0.10883402 -0.00029033       0.009
  -0.01561913  0.10877719 -0.00034674       0.009
 
 k-points in reciprocal lattice and weights: KMesh Grid                              
   0.00000000  0.00000000  0.00000000       0.004
   0.06666667  0.00000000  0.00000000       0.009
   0.13333333  0.00000000  0.00000000       0.009
   0.20000000  0.00000000  0.00000000       0.009
   0.26666667  0.00000000 -0.00000000       0.009
   0.33333333  0.00000000 -0.00000000       0.009
   0.40000000  0.00000000  0.00000000       0.009
   0.46666667  0.00000000 -0.00000000       0.009
  -0.00000000  0.06666667 -0.00000000       0.009
   0.06666667  0.06666667  0.00000000       0.009
   0.13333333  0.06666667  0.00000000       0.009
   0.20000000  0.06666667 -0.00000000       0.009
   0.26666667  0.06666667 -0.00000000       0.009
   0.33333333  0.06666667 -0.00000000       0.009
   0.40000000  0.06666667  0.00000000       0.009
   0.46666667  0.06666667 -0.00000000       0.009
  -0.46666667  0.06666667  0.00000000       0.009
  -0.40000000  0.06666667 -0.00000000       0.009
  -0.33333333  0.06666667  0.00000000       0.009
  -0.26666667  0.06666667  0.00000000       0.009
  -0.20000000  0.06666667 -0.00000000       0.009
  -0.13333333  0.06666667  0.00000000       0.009
  -0.06666667  0.06666667 -0.00000000       0.009
  -0.00000000  0.13333333 -0.00000000       0.009
   0.06666667  0.13333333  0.00000000       0.009
   0.13333333  0.13333333 -0.00000000       0.009
   0.20000000  0.13333333  0.00000000       0.009
   0.26666667  0.13333333 -0.00000000       0.009
   0.33333333  0.13333333 -0.00000000       0.009
   0.40000000  0.13333333 -0.00000000       0.009
   0.46666667  0.13333333 -0.00000000       0.009
  -0.46666667  0.13333333 -0.00000000       0.009
  -0.40000000  0.13333333 -0.00000000       0.009
  -0.33333333  0.13333333  0.00000000       0.009
  -0.26666667  0.13333333  0.00000000       0.009
  -0.20000000  0.13333333  0.00000000       0.009
  -0.13333333  0.13333333  0.00000000       0.009
  -0.06666667  0.13333333  0.00000000       0.009
  -0.00000000  0.20000000  0.00000000       0.009
   0.06666667  0.20000000 -0.00000000       0.009
   0.13333333  0.20000000  0.00000000       0.009
   0.20000000  0.20000000 -0.00000000       0.009
   0.26666667  0.20000000  0.00000000       0.009
   0.33333333  0.20000000  0.00000000       0.009
   0.40000000  0.20000000  0.00000000       0.009
   0.46666667  0.20000000 -0.00000000       0.009
  -0.46666667  0.20000000  0.00000000       0.009
  -0.40000000  0.20000000  0.00000000       0.009
  -0.33333333  0.20000000  0.00000000       0.009
  -0.26666667  0.20000000  0.00000000       0.009
  -0.20000000  0.20000000 -0.00000000       0.009
  -0.13333333  0.20000000 -0.00000000       0.009
  -0.06666667  0.20000000  0.00000000       0.009
  -0.00000000  0.26666667 -0.00000000       0.009
   0.06666667  0.26666667 -0.00000000       0.009
   0.13333333  0.26666667  0.00000000       0.009
   0.20000000  0.26666667 -0.00000000       0.009
   0.26666667  0.26666667 -0.00000000       0.009
   0.33333333  0.26666667 -0.00000000       0.009
   0.40000000  0.26666667  0.00000000       0.009
   0.46666667  0.26666667 -0.00000000       0.009
  -0.46666667  0.26666667  0.00000000       0.009
  -0.40000000  0.26666667  0.00000000       0.009
  -0.33333333  0.26666667  0.00000000       0.009
  -0.26666667  0.26666667  0.00000000       0.009
  -0.20000000  0.26666667  0.00000000       0.009
  -0.13333333  0.26666667  0.00000000       0.009
  -0.06666667  0.26666667 -0.00000000       0.009
  -0.00000000  0.33333333 -0.00000000       0.009
   0.06666667  0.33333333 -0.00000000       0.009
   0.13333333  0.33333333 -0.00000000       0.009
   0.20000000  0.33333333 -0.00000000       0.009
   0.26666667  0.33333333  0.00000000       0.009
   0.33333333  0.33333333 -0.00000000       0.009
   0.40000000  0.33333333 -0.00000000       0.009
   0.46666667  0.33333333  0.00000000       0.009
  -0.46666667  0.33333333  0.00000000       0.009
  -0.40000000  0.33333333  0.00000000       0.009
  -0.33333333  0.33333333  0.00000000       0.009
  -0.26666667  0.33333333  0.00000000       0.009
  -0.20000000  0.33333333  0.00000000       0.009
  -0.13333333  0.33333333  0.00000000       0.009
  -0.06666667  0.33333333 -0.00000000       0.009
  -0.00000000  0.40000000  0.00000000       0.009
   0.06666667  0.40000000  0.00000000       0.009
   0.13333333  0.40000000  0.00000000       0.009
   0.20000000  0.40000000  0.00000000       0.009
   0.26666667  0.40000000 -0.00000000       0.009
   0.33333333  0.40000000 -0.00000000       0.009
   0.40000000  0.40000000  0.00000000       0.009
   0.46666667  0.40000000  0.00000000       0.009
  -0.46666667  0.40000000  0.00000000       0.009
  -0.40000000  0.40000000 -0.00000000       0.009
  -0.33333333  0.40000000  0.00000000       0.009
  -0.26666667  0.40000000  0.00000000       0.009
  -0.20000000  0.40000000  0.00000000       0.009
  -0.13333333  0.40000000  0.00000000       0.009
  -0.06666667  0.40000000  0.00000000       0.009
  -0.00000000  0.46666667 -0.00000000       0.009
   0.06666667  0.46666667  0.00000000       0.009
   0.13333333  0.46666667 -0.00000000       0.009
   0.20000000  0.46666667  0.00000000       0.009
   0.26666667  0.46666667  0.00000000       0.009
   0.33333333  0.46666667 -0.00000000       0.009
   0.40000000  0.46666667 -0.00000000       0.009
   0.46666667  0.46666667  0.00000000       0.009
  -0.46666667  0.46666667  0.00000000       0.009
  -0.40000000  0.46666667 -0.00000000       0.009
  -0.33333333  0.46666667  0.00000000       0.009
  -0.26666667  0.46666667  0.00000000       0.009
  -0.20000000  0.46666667  0.00000000       0.009
  -0.13333333  0.46666667  0.00000000       0.009
  -0.06666667  0.46666667  0.00000000       0.009
 
 position of ions in fractional coordinates (direct lattice) 
   0.58124336  0.75000000  0.56874314
   0.08124336  0.25000000  0.43125686
   0.03286064  0.25000000  0.56707387
   0.53286061  0.75000000  0.43292613
 
 position of ions in cartesian coordinates  (Angst):
   2.60194409  3.27156619 11.48179895
   0.39240584  1.10679887  8.69518504
   0.19056180  1.11619003 11.43110263
   2.37972737  3.26058480  8.74429113
 


--------------------------------------------------------------------------------------------------------


 k-point  1 :   0.0000 0.0000 0.0000  plane waves:   12691
 k-point  2 :   0.0667 0.0000 0.0000  plane waves:   12681
 k-point  3 :   0.1333 0.0000 0.0000  plane waves:   12680
 k-point  4 :   0.2000 0.0000 0.0000  plane waves:   12647
 k-point  5 :   0.2667 0.0000-0.0000  plane waves:   12643
 k-point  6 :   0.3333 0.0000-0.0000  plane waves:   12661
 k-point  7 :   0.4000 0.0000 0.0000  plane waves:   12685
 k-point  8 :   0.4667 0.0000-0.0000  plane waves:   12668
 k-point  9 :  -0.0000 0.0667-0.0000  plane waves:   12668
 k-point 10 :   0.0667 0.0667 0.0000  plane waves:   12671
 k-point 11 :   0.1333 0.0667 0.0000  plane waves:   12656
 k-point 12 :   0.2000 0.0667-0.0000  plane waves:   12653
 k-point 13 :   0.2667 0.0667-0.0000  plane waves:   12633
 k-point 14 :   0.3333 0.0667-0.0000  plane waves:   12670
 k-point 15 :   0.4000 0.0667 0.0000  plane waves:   12680
 k-point 16 :   0.4667 0.0667-0.0000  plane waves:   12679
 k-point 17 :  -0.4667 0.0667 0.0000  plane waves:   12677
 k-point 18 :  -0.4000 0.0667-0.0000  plane waves:   12680
 k-point 19 :  -0.3333 0.0667 0.0000  plane waves:   12671
 k-point 20 :  -0.2667 0.0667 0.0000  plane waves:   12650
 k-point 21 :  -0.2000 0.0667-0.0000  plane waves:   12654
 k-point 22 :  -0.1333 0.0667 0.0000  plane waves:   12673
 k-point 23 :  -0.0667 0.0667-0.0000  plane waves:   12678
 k-point 24 :  -0.0000 0.1333-0.0000  plane waves:   12674
 k-point 25 :   0.0667 0.1333 0.0000  plane waves:   12667
 k-point 26 :   0.1333 0.1333-0.0000  plane waves:   12663
 k-point 27 :   0.2000 0.1333 0.0000  plane waves:   12640
 k-point 28 :   0.2667 0.1333-0.0000  plane waves:   12637
 k-point 29 :   0.3333 0.1333-0.0000  plane waves:   12664
 k-point 30 :   0.4000 0.1333-0.0000  plane waves:   12673
 k-point 31 :   0.4667 0.1333-0.0000  plane waves:   12674
 k-point 32 :  -0.4667 0.1333-0.0000  plane waves:   12669
 k-point 33 :  -0.4000 0.1333-0.0000  plane waves:   12680
 k-point 34 :  -0.3333 0.1333 0.0000  plane waves:   12678
 k-point 35 :  -0.2667 0.1333 0.0000  plane waves:   12659
 k-point 36 :  -0.2000 0.1333 0.0000  plane waves:   12662
 k-point 37 :  -0.1333 0.1333 0.0000  plane waves:   12668
 k-point 38 :  -0.0667 0.1333 0.0000  plane waves:   12674
 k-point 39 :  -0.0000 0.2000 0.0000  plane waves:   12656
 k-point 40 :   0.0667 0.2000-0.0000  plane waves:   12651
 k-point 41 :   0.1333 0.2000 0.0000  plane waves:   12650
 k-point 42 :   0.2000 0.2000-0.0000  plane waves:   12650
 k-point 43 :   0.2667 0.2000 0.0000  plane waves:   12640
 k-point 44 :   0.3333 0.2000 0.0000  plane waves:   12644
 k-point 45 :   0.4000 0.2000 0.0000  plane waves:   12648
 k-point 46 :   0.4667 0.2000-0.0000  plane waves:   12677
 k-point 47 :  -0.4667 0.2000 0.0000  plane waves:   12678
 k-point 48 :  -0.4000 0.2000 0.0000  plane waves:   12653
 k-point 49 :  -0.3333 0.2000 0.0000  plane waves:   12650
 k-point 50 :  -0.2667 0.2000 0.0000  plane waves:   12666
 k-point 51 :  -0.2000 0.2000-0.0000  plane waves:   12661
 k-point 52 :  -0.1333 0.2000-0.0000  plane waves:   12659
 k-point 53 :  -0.0667 0.2000 0.0000  plane waves:   12665
 k-point 54 :  -0.0000 0.2667-0.0000  plane waves:   12651
 k-point 55 :   0.0667 0.2667-0.0000  plane waves:   12647
 k-point 56 :   0.1333 0.2667 0.0000  plane waves:   12653
 k-point 57 :   0.2000 0.2667-0.0000  plane waves:   12656
 k-point 58 :   0.2667 0.2667-0.0000  plane waves:   12634
 k-point 59 :   0.3333 0.2667-0.0000  plane waves:   12644
 k-point 60 :   0.4000 0.2667 0.0000  plane waves:   12647
 k-point 61 :   0.4667 0.2667-0.0000  plane waves:   12646
 k-point 62 :  -0.4667 0.2667 0.0000  plane waves:   12658
 k-point 63 :  -0.4000 0.2667 0.0000  plane waves:   12667
 k-point 64 :  -0.3333 0.2667 0.0000  plane waves:   12651
 k-point 65 :  -0.2667 0.2667 0.0000  plane waves:   12644
 k-point 66 :  -0.2000 0.2667 0.0000  plane waves:   12658
 k-point 67 :  -0.1333 0.2667 0.0000  plane waves:   12658
 k-point 68 :  -0.0667 0.2667-0.0000  plane waves:   12653
 k-point 69 :  -0.0000 0.3333-0.0000  plane waves:   12630
 k-point 70 :   0.0667 0.3333-0.0000  plane waves:   12638
 k-point 71 :   0.1333 0.3333-0.0000  plane waves:   12631
 k-point 72 :   0.2000 0.3333-0.0000  plane waves:   12643
 k-point 73 :   0.2667 0.3333 0.0000  plane waves:   12638
 k-point 74 :   0.3333 0.3333-0.0000  plane waves:   12641
 k-point 75 :   0.4000 0.3333-0.0000  plane waves:   12643
 k-point 76 :   0.4667 0.3333 0.0000  plane waves:   12640
 k-point 77 :  -0.4667 0.3333 0.0000  plane waves:   12649
 k-point 78 :  -0.4000 0.3333 0.0000  plane waves:   12644
 k-point 79 :  -0.3333 0.3333 0.0000  plane waves:   12656
 k-point 80 :  -0.2667 0.3333 0.0000  plane waves:   12656
 k-point 81 :  -0.2000 0.3333 0.0000  plane waves:   12653
 k-point 82 :  -0.1333 0.3333 0.0000  plane waves:   12640
 k-point 83 :  -0.0667 0.3333-0.0000  plane waves:   12628
 k-point 84 :  -0.0000 0.4000 0.0000  plane waves:   12618
 k-point 85 :   0.0667 0.4000 0.0000  plane waves:   12630
 k-point 86 :   0.1333 0.4000 0.0000  plane waves:   12641
 k-point 87 :   0.2000 0.4000 0.0000  plane waves:   12619
 k-point 88 :   0.2667 0.4000-0.0000  plane waves:   12626
 k-point 89 :   0.3333 0.4000-0.0000  plane waves:   12623
 k-point 90 :   0.4000 0.4000 0.0000  plane waves:   12637
 k-point 91 :   0.4667 0.4000 0.0000  plane waves:   12640
 k-point 92 :  -0.4667 0.4000 0.0000  plane waves:   12631
 k-point 93 :  -0.4000 0.4000-0.0000  plane waves:   12615
 k-point 94 :  -0.3333 0.4000 0.0000  plane waves:   12643
 k-point 95 :  -0.2667 0.4000 0.0000  plane waves:   12647
 k-point 96 :  -0.2000 0.4000 0.0000  plane waves:   12636
 k-point 97 :  -0.1333 0.4000 0.0000  plane waves:   12625
 k-point 98 :  -0.0667 0.4000 0.0000  plane waves:   12624
 k-point 99 :  -0.0000 0.4667-0.0000  plane waves:   12623
 k-point ** :   0.0667 0.4667 0.0000  plane waves:   12632
 k-point ** :   0.1333 0.4667-0.0000  plane waves:   12624
 k-point ** :   0.2000 0.4667 0.0000  plane waves:   12634
 k-point ** :   0.2667 0.4667 0.0000  plane waves:   12608
 k-point ** :   0.3333 0.4667-0.0000  plane waves:   12642
 k-point ** :   0.4000 0.4667-0.0000  plane waves:   12622
 k-point ** :   0.4667 0.4667 0.0000  plane waves:   12627
 k-point ** :  -0.4667 0.4667 0.0000  plane waves:   12625
 k-point ** :  -0.4000 0.4667-0.0000  plane waves:   12620
 k-point ** :  -0.3333 0.4667 0.0000  plane waves:   12616
 k-point ** :  -0.2667 0.4667 0.0000  plane waves:   12622
 k-point ** :  -0.2000 0.4667 0.0000  plane waves:   12621
 k-point ** :  -0.1333 0.4667 0.0000  plane waves:   12627
 k-point ** :  -0.0667 0.4667 0.0000  plane waves:   12624

 maximum and minimum number of plane-waves per node :       553      501

 maximum number of plane-waves:     12691
 maximum index in each direction: 
   IXMAX=    9   IYMAX=    8   IZMAX=   40
   IXMIN=   -9   IYMIN=   -9   IZMIN=  -40


 parallel 3D FFT for wavefunctions:
    minimum data exchange during FFTs selected (reduces bandwidth)
 parallel 3D FFT for charge:
    minimum data exchange during FFTs selected (reduces bandwidth)


 total amount of memory used by VASP MPI-rank0    64485. kBytes
=======================================================================

   base      :      30000. kBytes
   nonl-proj :      13033. kBytes
   fftplans  :       2714. kBytes
   grid      :       4404. kBytes
   one-center:          8. kBytes
   wavefun   :      14326. kBytes
 
     INWAV:  cpu time    0.0000: real time    0.0000
 Broyden mixing: mesh for mixing (old mesh)
   NGX = 17   NGY = 17   NGZ = 81
  (NGX  = 72   NGY  = 72   NGZ  =324)
  gives a total of  23409 points

 initial charge density was supplied:
 charge density of overlapping atoms calculated
 number of electron      20.0000000 magnetization 
 keeping initial charge density in first step


--------------------------------------------------------------------------------------------------------


 Maximum index for augmentation-charges         2236 (set IRDMAX)


--------------------------------------------------------------------------------------------------------


 First call to EWALD:  gamma=   0.245
 Maximum number of real-space cells 4x 4x 1
 Maximum number of reciprocal cells 2x 2x 7

    FEWALD:  cpu time    0.0010: real time    0.0018


--------------------------------------- Iteration      1(   1)  ---------------------------------------


    POTLOK:  cpu time    0.1241: real time    0.2474
    SETDIJ:  cpu time    0.0040: real time    0.0121
     EDDAV:  cpu time    2.1854: real time    2.1956
       DOS:  cpu time    0.0044: real time    0.0045
    --------------------------------------------
      LOOP:  cpu time    2.3179: real time    2.4596

 eigenvalue-minimisations  :  3164
 total energy-change (2. order) : 0.1451177E+03  (-0.6313504E+03)
 number of electron      20.0000000 magnetization 
 augmentation part       20.0000000 magnetization 

 Free energy of the ion-electron system (eV)
  ---------------------------------------------------
  alpha Z        PSCENC =         9.43386157
  Ewald energy   TEWEN  =      1168.12102432
  -Hartree energ DENC   =     -1769.83448236
  -exchange      EXHF   =         0.00000000
  -V(xc)+E(xc)   XCENC  =      -238.61955235
  PAW double counting   =       799.43158084     -524.17639913
  entropy T*S    EENTRO =        -0.01292144
  eigenvalues    EBANDS =        -1.65335636
  atomic energy  EATOM  =       702.42789710
  Solvation  Ediel_sol  =         0.00000000
  ---------------------------------------------------
  free energy    TOTEN  =       145.11765219 eV

  energy without entropy =      145.13057363  energy(sigma->0) =      145.12411291


--------------------------------------------------------------------------------------------------------




--------------------------------------- Iteration      1(   2)  ---------------------------------------


     EDDAV:  cpu time    3.2103: real time    3.2255
       DOS:  cpu time    0.0043: real time    0.0043
    --------------------------------------------
      LOOP:  cpu time    3.2146: real time    3.2299

 eigenvalue-minimisations  :  5314
 total energy-change (2. order) :-0.1405025E+03  (-0.1366370E+03)
 number of electron      20.0000000 magnetization 
 augmentation part       20.0000000 magnetization 

 Free energy of the ion-electron system (eV)
  ---------------------------------------------------
  alpha Z        PSCENC =         9.43386157
  Ewald energy   TEWEN  =      1168.12102432
  -Hartree energ DENC   =     -1769.83448236
  -exchange      EXHF   =         0.00000000
  -V(xc)+E(xc)   XCENC  =      -238.61955235
  PAW double counting   =       799.43158084     -524.17639913
  entropy T*S    EENTRO =        -0.00110312
  eigenvalues    EBANDS =      -142.16771445
  atomic energy  EATOM  =       702.42789710
  Solvation  Ediel_sol  =         0.00000000
  ---------------------------------------------------
  free energy    TOTEN  =         4.61511242 eV

  energy without entropy =        4.61621554  energy(sigma->0) =        4.61566398


--------------------------------------------------------------------------------------------------------




--------------------------------------- Iteration      1(   3)  ---------------------------------------


     EDDAV:  cpu time    2.5335: real time    2.5394
       DOS:  cpu time    0.0030: real time    0.0030
    --------------------------------------------
      LOOP:  cpu time    2.5365: real time    2.5424

 eigenvalue-minimisations  :  3958
 total energy-change (2. order) :-0.2058170E+02  (-0.2041843E+02)
 number of electron      20.0000000 magnetization 
 augmentation part       20.0000000 magnetization 

 Free energy of the ion-electron system (eV)
  ---------------------------------------------------
  alpha Z        PSCENC =         9.43386157
  Ewald energy   TEWEN  =      1168.12102432
  -Hartree energ DENC   =     -1769.83448236
  -exchange      EXHF   =         0.00000000
  -V(xc)+E(xc)   XCENC  =      -238.61955235
  PAW double counting   =       799.43158084     -524.17639913
  entropy T*S    EENTRO =        -0.00000000
  eigenvalues    EBANDS =      -162.75051294
  atomic energy  EATOM  =       702.42789710
  Solvation  Ediel_sol  =         0.00000000
  ---------------------------------------------------
  free energy    TOTEN  =       -15.96658295 eV

  energy without entropy =      -15.96658295  energy(sigma->0) =      -15.96658295


--------------------------------------------------------------------------------------------------------




--------------------------------------- Iteration      1(   4)  ---------------------------------------


     EDDAV:  cpu time    2.7968: real time    2.8035
       DOS:  cpu time    0.0029: real time    0.0029
    --------------------------------------------
      LOOP:  cpu time    2.7997: real time    2.8064

 eigenvalue-minimisations  :  4582
 total energy-change (2. order) :-0.8173678E+00  (-0.8148521E+00)
 number of electron      20.0000000 magnetization 
 augmentation part       20.0000000 magnetization 

 Free energy of the ion-electron system (eV)
  ---------------------------------------------------
  alpha Z        PSCENC =         9.43386157
  Ewald energy   TEWEN  =      1168.12102432
  -Hartree energ DENC   =     -1769.83448236
  -exchange      EXHF   =         0.00000000
  -V(xc)+E(xc)   XCENC  =      -238.61955235
  PAW double counting   =       799.43158084     -524.17639913
  entropy T*S    EENTRO =        -0.00000000
  eigenvalues    EBANDS =      -163.56788070
  atomic energy  EATOM  =       702.42789710
  Solvation  Ediel_sol  =         0.00000000
  ---------------------------------------------------
  free energy    TOTEN  =       -16.78395071 eV

  energy without entropy =      -16.78395071  energy(sigma->0) =      -16.78395071


--------------------------------------------------------------------------------------------------------




--------------------------------------- Iteration      1(   5)  ---------------------------------------


     EDDAV:  cpu time    2.5429: real time    2.5490
       DOS:  cpu time    0.0030: real time    0.0030
    CHARGE:  cpu time    0.1817: real time    0.1823
    MIXING:  cpu time    0.0035: real time    0.0036
    --------------------------------------------
      LOOP:  cpu time    2.7311: real time    2.7380

 eigenvalue-minimisations  :  4056
 total energy-change (2. order) :-0.1795605E-01  (-0.1794322E-01)
 number of electron      19.9999999 magnetization 
 augmentation part       -4.5217026 magnetization 

 Broyden mixing:
  rms(total) = 0.44746E+00    rms(broyden)= 0.44746E+00
  rms(prec ) = 0.48851E+00
  weight for this iteration     100.00

 Free energy of the ion-electron system (eV)
  ---------------------------------------------------
  alpha Z        PSCENC =         9.43386157
  Ewald energy   TEWEN  =      1168.12102432
  -Hartree energ DENC   =     -1769.83448236
  -exchange      EXHF   =         0.00000000
  -V(xc)+E(xc)   XCENC  =      -238.61955235
  PAW double counting   =       799.43158084     -524.17639913
  entropy T*S    EENTRO =        -0.00000000
  eigenvalues    EBANDS =      -163.58583675
  atomic energy  EATOM  =       702.42789710
  Solvation  Ediel_sol  =         0.00000000
  ---------------------------------------------------
  free energy    TOTEN  =       -16.80190676 eV

  energy without entropy =      -16.80190676  energy(sigma->0) =      -16.80190676


--------------------------------------------------------------------------------------------------------




--------------------------------------- Iteration      1(   6)  ---------------------------------------


    POTLOK:  cpu time    0.0370: real time    0.0371
    SETDIJ:  cpu time    0.0032: real time    0.0036
     EDDAV:  cpu time    2.5169: real time    2.5227
       DOS:  cpu time    0.0031: real time    0.0031
    CHARGE:  cpu time    0.1734: real time    0.1737
    MIXING:  cpu time    0.0011: real time    0.0011
    --------------------------------------------
      LOOP:  cpu time    2.7347: real time    2.7413

 eigenvalue-minimisations  :  3934
 total energy-change (2. order) : 0.5000664E+00  (-0.1284915E+00)
 number of electron      19.9999999 magnetization 
 augmentation part       -4.4886823 magnetization 

 Broyden mixing:
  rms(total) = 0.27332E+00    rms(broyden)= 0.27332E+00
  rms(prec ) = 0.28252E+00
  weight for this iteration     100.00

 eigenvalues of (default mixing * dielectric matrix)
  average eigenvalue GAMMA=   1.7739
  1.7739

 Free energy of the ion-electron system (eV)
  ---------------------------------------------------
  alpha Z        PSCENC =         9.43386157
  Ewald energy   TEWEN  =      1168.12102432
  -Hartree energ DENC   =     -1777.79309474
  -exchange      EXHF   =         0.00000000
  -V(xc)+E(xc)   XCENC  =      -238.13658613
  PAW double counting   =       922.41090319     -647.33247225
  entropy T*S    EENTRO =        -0.00000000
  eigenvalues    EBANDS =      -155.43337344
  atomic energy  EATOM  =       702.42789710
  Solvation  Ediel_sol  =         0.00000000
  ---------------------------------------------------
  free energy    TOTEN  =       -16.30184038 eV

  energy without entropy =      -16.30184038  energy(sigma->0) =      -16.30184038


--------------------------------------------------------------------------------------------------------




--------------------------------------- Iteration      1(   7)  ---------------------------------------


    POTLOK:  cpu time    0.0371: real time    0.0372
    SETDIJ:  cpu time    0.0036: real time    0.0036
     EDDAV:  cpu time    2.5687: real time    2.5746
       DOS:  cpu time    0.0031: real time    0.0031
    CHARGE:  cpu time    0.1730: real time    0.1732
    MIXING:  cpu time    0.0013: real time    0.0014
    --------------------------------------------
      LOOP:  cpu time    2.7867: real time    2.7931

 eigenvalue-minimisations  :  4126
 total energy-change (2. order) : 0.2707539E-01  (-0.3136231E-01)
 number of electron      19.9999999 magnetization 
 augmentation part       -4.4810959 magnetization 

 Broyden mixing:
  rms(total) = 0.10576E+00    rms(broyden)= 0.10576E+00
  rms(prec ) = 0.11115E+00
  weight for this iteration     100.00

 eigenvalues of (default mixing * dielectric matrix)
  average eigenvalue GAMMA=   1.7323
  1.3696  2.0950

 Free energy of the ion-electron system (eV)
  ---------------------------------------------------
  alpha Z        PSCENC =         9.43386157
  Ewald energy   TEWEN  =      1168.12102432
  -Hartree energ DENC   =     -1782.77674808
  -exchange      EXHF   =         0.00000000
  -V(xc)+E(xc)   XCENC  =      -237.82000317
  PAW double counting   =      1059.49773098     -784.55053783
  entropy T*S    EENTRO =        -0.00000000
  eigenvalues    EBANDS =      -150.60798988
  atomic energy  EATOM  =       702.42789710
  Solvation  Ediel_sol  =         0.00000000
  ---------------------------------------------------
  free energy    TOTEN  =       -16.27476499 eV

  energy without entropy =      -16.27476499  energy(sigma->0) =      -16.27476499


--------------------------------------------------------------------------------------------------------




--------------------------------------- Iteration      1(   8)  ---------------------------------------


    POTLOK:  cpu time    0.0368: real time    0.0369
    SETDIJ:  cpu time    0.0031: real time    0.0032
     EDDAV:  cpu time    2.7411: real time    2.7476
       DOS:  cpu time    0.0031: real time    0.0031
    CHARGE:  cpu time    0.1730: real time    0.1732
    MIXING:  cpu time    0.0013: real time    0.0013
    --------------------------------------------
      LOOP:  cpu time    2.9585: real time    2.9652

 eigenvalue-minimisations  :  4482
 total energy-change (2. order) : 0.9670461E-02  (-0.3826858E-02)
 number of electron      19.9999999 magnetization 
 augmentation part       -4.4853503 magnetization 

 Broyden mixing:
  rms(total) = 0.20078E-01    rms(broyden)= 0.20078E-01
  rms(prec ) = 0.27646E-01
  weight for this iteration     100.00

 eigenvalues of (default mixing * dielectric matrix)
  average eigenvalue GAMMA=   1.6899
  2.5033  1.2832  1.2832

 Free energy of the ion-electron system (eV)
  ---------------------------------------------------
  alpha Z        PSCENC =         9.43386157
  Ewald energy   TEWEN  =      1168.12102432
  -Hartree energ DENC   =     -1784.54993981
  -exchange      EXHF   =         0.00000000
  -V(xc)+E(xc)   XCENC  =      -237.73949695
  PAW double counting   =      1125.96353456     -851.05434900
  entropy T*S    EENTRO =        -0.00000000
  eigenvalues    EBANDS =      -148.86762633
  atomic energy  EATOM  =       702.42789710
  Solvation  Ediel_sol  =         0.00000000
  ---------------------------------------------------
  free energy    TOTEN  =       -16.26509453 eV

  energy without entropy =      -16.26509453  energy(sigma->0) =      -16.26509453


--------------------------------------------------------------------------------------------------------




--------------------------------------- Iteration      1(   9)  ---------------------------------------


    POTLOK:  cpu time    0.0368: real time    0.0370
    SETDIJ:  cpu time    0.0030: real time    0.0030
     EDDAV:  cpu time    2.6829: real time    2.6892
       DOS:  cpu time    0.0031: real time    0.0031
    CHARGE:  cpu time    0.1738: real time    0.1758
    MIXING:  cpu time    0.0014: real time    0.0014
    --------------------------------------------
      LOOP:  cpu time    2.9010: real time    2.9094

 eigenvalue-minimisations  :  4334
 total energy-change (2. order) : 0.3741840E-02  (-0.6641154E-03)
 number of electron      19.9999999 magnetization 
 augmentation part       -4.4834881 magnetization 

 Broyden mixing:
  rms(total) = 0.99330E-02    rms(broyden)= 0.99330E-02
  rms(prec ) = 0.15703E-01
  weight for this iteration     100.00

 eigenvalues of (default mixing * dielectric matrix)
  average eigenvalue GAMMA=   1.7115
  2.2350  2.2350  1.1880  1.1880

 Free energy of the ion-electron system (eV)
  ---------------------------------------------------
  alpha Z        PSCENC =         9.43386157
  Ewald energy   TEWEN  =      1168.12102432
  -Hartree energ DENC   =     -1786.49137398
  -exchange      EXHF   =         0.00000000
  -V(xc)+E(xc)   XCENC  =      -237.66859212
  PAW double counting   =      1142.72042495     -867.82209356
  entropy T*S    EENTRO =        -0.00000000
  eigenvalues    EBANDS =      -146.98250097
  atomic energy  EATOM  =       702.42789710
  Solvation  Ediel_sol  =         0.00000000
  ---------------------------------------------------
  free energy    TOTEN  =       -16.26135269 eV

  energy without entropy =      -16.26135269  energy(sigma->0) =      -16.26135269


--------------------------------------------------------------------------------------------------------




--------------------------------------- Iteration      1(  10)  ---------------------------------------


    POTLOK:  cpu time    0.0371: real time    0.0373
    SETDIJ:  cpu time    0.0031: real time    0.0031
     EDDAV:  cpu time    2.7181: real time    2.7247
       DOS:  cpu time    0.0031: real time    0.0031
    CHARGE:  cpu time    0.1743: real time    0.1745
    MIXING:  cpu time    0.0013: real time    0.0013
    --------------------------------------------
      LOOP:  cpu time    2.9371: real time    2.9439

 eigenvalue-minimisations  :  4382
 total energy-change (2. order) : 0.1386407E-02  (-0.1284966E-03)
 number of electron      19.9999999 magnetization 
 augmentation part       -4.4821893 magnetization 

 Broyden mixing:
  rms(total) = 0.48476E-02    rms(broyden)= 0.48476E-02
  rms(prec ) = 0.92933E-02
  weight for this iteration     100.00

 eigenvalues of (default mixing * dielectric matrix)
  average eigenvalue GAMMA=   1.8524
  3.3103  2.5869  1.2265  1.2265  0.9116

 Free energy of the ion-electron system (eV)
  ---------------------------------------------------
  alpha Z        PSCENC =         9.43386157
  Ewald energy   TEWEN  =      1168.12102432
  -Hartree energ DENC   =     -1787.81776981
  -exchange      EXHF   =         0.00000000
  -V(xc)+E(xc)   XCENC  =      -237.65519911
  PAW double counting   =      1133.26962059     -858.36198506
  entropy T*S    EENTRO =        -0.00000000
  eigenvalues    EBANDS =      -145.67741589
  atomic energy  EATOM  =       702.42789710
  Solvation  Ediel_sol  =         0.00000000
  ---------------------------------------------------
  free energy    TOTEN  =       -16.25996628 eV

  energy without entropy =      -16.25996628  energy(sigma->0) =      -16.25996628


--------------------------------------------------------------------------------------------------------




--------------------------------------- Iteration      1(  11)  ---------------------------------------


    POTLOK:  cpu time    0.0374: real time    0.0375
    SETDIJ:  cpu time    0.0032: real time    0.0037
     EDDAV:  cpu time    2.6584: real time    2.6645
       DOS:  cpu time    0.0032: real time    0.0031
    CHARGE:  cpu time    0.1728: real time    0.1730
    MIXING:  cpu time    0.0014: real time    0.0014
    --------------------------------------------
      LOOP:  cpu time    2.8764: real time    2.8832

 eigenvalue-minimisations  :  4274
 total energy-change (2. order) : 0.7469987E-03  (-0.1268330E-03)
 number of electron      19.9999999 magnetization 
 augmentation part       -4.4808010 magnetization 

 Broyden mixing:
  rms(total) = 0.32128E-02    rms(broyden)= 0.32128E-02
  rms(prec ) = 0.50070E-02
  weight for this iteration     100.00

 eigenvalues of (default mixing * dielectric matrix)
  average eigenvalue GAMMA=   1.8386
  3.4005  2.3784  1.9844  1.1865  1.1865  0.8954

 Free energy of the ion-electron system (eV)
  ---------------------------------------------------
  alpha Z        PSCENC =         9.43386157
  Ewald energy   TEWEN  =      1168.12102432
  -Hartree energ DENC   =     -1789.42927896
  -exchange      EXHF   =         0.00000000
  -V(xc)+E(xc)   XCENC  =      -237.62394171
  PAW double counting   =      1134.47368672     -859.56480717
  entropy T*S    EENTRO =        -0.00000000
  eigenvalues    EBANDS =      -144.09766115
  atomic energy  EATOM  =       702.42789710
  Solvation  Ediel_sol  =         0.00000000
  ---------------------------------------------------
  free energy    TOTEN  =       -16.25921928 eV

  energy without entropy =      -16.25921928  energy(sigma->0) =      -16.25921928


--------------------------------------------------------------------------------------------------------




--------------------------------------- Iteration      1(  12)  ---------------------------------------


    POTLOK:  cpu time    0.0374: real time    0.0376
    SETDIJ:  cpu time    0.0031: real time    0.0031
     EDDAV:  cpu time    2.3502: real time    2.3557
       DOS:  cpu time    0.0031: real time    0.0031
    CHARGE:  cpu time    0.1730: real time    0.1731
    MIXING:  cpu time    0.0014: real time    0.0014
    --------------------------------------------
      LOOP:  cpu time    2.5683: real time    2.5740

 eigenvalue-minimisations  :  3572
 total energy-change (2. order) :-0.8609021E-03  (-0.2869086E-04)
 number of electron      19.9999999 magnetization 
 augmentation part       -4.4801386 magnetization 

 Broyden mixing:
  rms(total) = 0.16833E-02    rms(broyden)= 0.16833E-02
  rms(prec ) = 0.26791E-02
  weight for this iteration     100.00

 eigenvalues of (default mixing * dielectric matrix)
  average eigenvalue GAMMA=   2.0655
  4.6204  3.0733  2.5028  1.1959  1.1959  1.0209  0.8495

 Free energy of the ion-electron system (eV)
  ---------------------------------------------------
  alpha Z        PSCENC =         9.43386157
  Ewald energy   TEWEN  =      1168.12102432
  -Hartree energ DENC   =     -1790.10894173
  -exchange      EXHF   =         0.00000000
  -V(xc)+E(xc)   XCENC  =      -237.61444478
  PAW double counting   =      1135.83226241     -860.92556742
  entropy T*S    EENTRO =        -0.00000000
  eigenvalues    EBANDS =      -143.42617165
  atomic energy  EATOM  =       702.42789710
  Solvation  Ediel_sol  =         0.00000000
  ---------------------------------------------------
  free energy    TOTEN  =       -16.26008019 eV

  energy without entropy =      -16.26008019  energy(sigma->0) =      -16.26008019


--------------------------------------------------------------------------------------------------------




--------------------------------------- Iteration      1(  13)  ---------------------------------------


    POTLOK:  cpu time    0.0376: real time    0.0378
    SETDIJ:  cpu time    0.0031: real time    0.0031
     EDDAV:  cpu time    2.4110: real time    2.4164
       DOS:  cpu time    0.0031: real time    0.0031
    CHARGE:  cpu time    0.1730: real time    0.1732
    MIXING:  cpu time    0.0014: real time    0.0014
    --------------------------------------------
      LOOP:  cpu time    2.6292: real time    2.6349

 eigenvalue-minimisations  :  3734
 total energy-change (2. order) :-0.4342394E-03  (-0.7484637E-05)
 number of electron      19.9999999 magnetization 
 augmentation part       -4.4799464 magnetization 

 Broyden mixing:
  rms(total) = 0.10921E-02    rms(broyden)= 0.10921E-02
  rms(prec ) = 0.14754E-02
  weight for this iteration     100.00

 eigenvalues of (default mixing * dielectric matrix)
  average eigenvalue GAMMA=   2.2555
  5.7563  3.2658  2.4676  2.2646  1.1573  1.1573  1.0604  0.9145

 Free energy of the ion-electron system (eV)
  ---------------------------------------------------
  alpha Z        PSCENC =         9.43386157
  Ewald energy   TEWEN  =      1168.12102432
  -Hartree energ DENC   =     -1790.50951176
  -exchange      EXHF   =         0.00000000
  -V(xc)+E(xc)   XCENC  =      -237.61293643
  PAW double counting   =      1134.93876563     -860.03111464
  entropy T*S    EENTRO =        -0.00000000
  eigenvalues    EBANDS =      -143.02850021
  atomic energy  EATOM  =       702.42789710
  Solvation  Ediel_sol  =         0.00000000
  ---------------------------------------------------
  free energy    TOTEN  =       -16.26051443 eV

  energy without entropy =      -16.26051443  energy(sigma->0) =      -16.26051443


--------------------------------------------------------------------------------------------------------




--------------------------------------- Iteration      1(  14)  ---------------------------------------


    POTLOK:  cpu time    0.0385: real time    0.0387
    SETDIJ:  cpu time    0.0030: real time    0.0030
     EDDAV:  cpu time    2.5101: real time    2.5159
       DOS:  cpu time    0.0031: real time    0.0031
    CHARGE:  cpu time    0.1729: real time    0.1731
    MIXING:  cpu time    0.0015: real time    0.0015
    --------------------------------------------
      LOOP:  cpu time    2.7291: real time    2.7352

 eigenvalue-minimisations  :  3938
 total energy-change (2. order) :-0.2940615E-03  (-0.4207494E-05)
 number of electron      19.9999999 magnetization 
 augmentation part       -4.4799185 magnetization 

 Broyden mixing:
  rms(total) = 0.39974E-03    rms(broyden)= 0.39974E-03
  rms(prec ) = 0.60821E-03
  weight for this iteration     100.00

 eigenvalues of (default mixing * dielectric matrix)
  average eigenvalue GAMMA=   2.2524
  6.7792  3.0902  2.5381  2.5381  1.1778  1.1778  0.9602  1.0050  1.0050

 Free energy of the ion-electron system (eV)
  ---------------------------------------------------
  alpha Z        PSCENC =         9.43386157
  Ewald energy   TEWEN  =      1168.12102432
  -Hartree energ DENC   =     -1790.72241963
  -exchange      EXHF   =         0.00000000
  -V(xc)+E(xc)   XCENC  =      -237.61288145
  PAW double counting   =      1135.11758472     -860.20936176
  entropy T*S    EENTRO =        -0.00000000
  eigenvalues    EBANDS =      -142.81651336
  atomic energy  EATOM  =       702.42789710
  Solvation  Ediel_sol  =         0.00000000
  ---------------------------------------------------
  free energy    TOTEN  =       -16.26080849 eV

  energy without entropy =      -16.26080849  energy(sigma->0) =      -16.26080849


--------------------------------------------------------------------------------------------------------




--------------------------------------- Iteration      1(  15)  ---------------------------------------


    POTLOK:  cpu time    0.0385: real time    0.0387
    SETDIJ:  cpu time    0.0031: real time    0.0031
     EDDAV:  cpu time    2.4990: real time    2.5049
       DOS:  cpu time    0.0031: real time    0.0031
    CHARGE:  cpu time    0.1741: real time    0.1742
    MIXING:  cpu time    0.0016: real time    0.0016
    --------------------------------------------
      LOOP:  cpu time    2.7194: real time    2.7256

 eigenvalue-minimisations  :  3872
 total energy-change (2. order) :-0.5388992E-04  (-0.2082023E-06)
 number of electron      19.9999999 magnetization 
 augmentation part       -4.4799351 magnetization 

 Broyden mixing:
  rms(total) = 0.31305E-03    rms(broyden)= 0.31305E-03
  rms(prec ) = 0.47923E-03
  weight for this iteration     100.00

 eigenvalues of (default mixing * dielectric matrix)
  average eigenvalue GAMMA=   2.3626
  6.6057  4.2825  2.6966  2.6966  1.9741  1.1387  1.1387  1.2118  0.9405  0.9405

 Free energy of the ion-electron system (eV)
  ---------------------------------------------------
  alpha Z        PSCENC =         9.43386157
  Ewald energy   TEWEN  =      1168.12102432
  -Hartree energ DENC   =     -1790.73368317
  -exchange      EXHF   =         0.00000000
  -V(xc)+E(xc)   XCENC  =      -237.61324620
  PAW double counting   =      1134.94209372     -860.03377002
  entropy T*S    EENTRO =        -0.00000000
  eigenvalues    EBANDS =      -142.80503969
  atomic energy  EATOM  =       702.42789710
  Solvation  Ediel_sol  =         0.00000000
  ---------------------------------------------------
  free energy    TOTEN  =       -16.26086238 eV

  energy without entropy =      -16.26086238  energy(sigma->0) =      -16.26086238


--------------------------------------------------------------------------------------------------------




--------------------------------------- Iteration      1(  16)  ---------------------------------------


    POTLOK:  cpu time    0.0376: real time    0.0378
    SETDIJ:  cpu time    0.0030: real time    0.0030
     EDDAV:  cpu time    2.3257: real time    2.3319
       DOS:  cpu time    0.0030: real time    0.0030
    CHARGE:  cpu time    0.1731: real time    0.1733
    MIXING:  cpu time    0.0018: real time    0.0018
    --------------------------------------------
      LOOP:  cpu time    2.5442: real time    2.5508

 eigenvalue-minimisations  :  3522
 total energy-change (2. order) :-0.4500754E-04  (-0.8531124E-06)
 number of electron      19.9999999 magnetization 
 augmentation part       -4.4799456 magnetization 

 Broyden mixing:
  rms(total) = 0.11223E-03    rms(broyden)= 0.11223E-03
  rms(prec ) = 0.21292E-03
  weight for this iteration     100.00

 eigenvalues of (default mixing * dielectric matrix)
  average eigenvalue GAMMA=   2.2852
  6.8457  4.5014  2.6534  2.6534  2.2442  1.1491  1.1491  1.1994  0.9411  0.9411
  0.8592

 Free energy of the ion-electron system (eV)
  ---------------------------------------------------
  alpha Z        PSCENC =         9.43386157
  Ewald energy   TEWEN  =      1168.12102432
  -Hartree energ DENC   =     -1790.78374067
  -exchange      EXHF   =         0.00000000
  -V(xc)+E(xc)   XCENC  =      -237.61328790
  PAW double counting   =      1134.82919823     -859.92089823
  entropy T*S    EENTRO =        -0.00000000
  eigenvalues    EBANDS =      -142.75496180
  atomic energy  EATOM  =       702.42789710
  Solvation  Ediel_sol  =         0.00000000
  ---------------------------------------------------
  free energy    TOTEN  =       -16.26090738 eV

  energy without entropy =      -16.26090738  energy(sigma->0) =      -16.26090738


--------------------------------------------------------------------------------------------------------




--------------------------------------- Iteration      1(  17)  ---------------------------------------


    POTLOK:  cpu time    0.0375: real time    0.0376
    SETDIJ:  cpu time    0.0031: real time    0.0031
     EDDAV:  cpu time    2.1171: real time    2.1220
       DOS:  cpu time    0.0031: real time    0.0031
    CHARGE:  cpu time    0.1729: real time    0.1730
    MIXING:  cpu time    0.0017: real time    0.0017
    --------------------------------------------
[...]
  band No.  band energies     occupation 
      1     -14.5725      2.00000
      2     -14.3293      2.00000
      3      -8.8673      2.00000
      4      -8.6357      2.00000
      5      -6.0849      2.00000
      6      -5.1325      2.00000
      7      -4.8655      2.00000
      8      -4.0996      2.00000
      9      -3.8509      2.00000
     10      -3.1066      2.00000
     11       0.1118      0.00000
     12       1.0568      0.00000
     13       1.1395      0.00000
     14       1.5595      0.00000

 k-point    96 :      -0.2000    0.4000    0.0000
  band No.  band energies     occupation 
      1     -14.6430      2.00000
      2     -14.3508      2.00000
      3      -9.0264      2.00000
      4      -8.7382      2.00000
      5      -5.6575      2.00000
      6      -4.8388      2.00000
      7      -4.5963      2.00000
      8      -3.9740      2.00000
      9      -3.4911      2.00000
     10      -2.7112      2.00000
     11      -0.3623      0.00000
     12       0.5331      0.00000
     13       0.6883      0.00000
     14       1.1937      0.00000

 k-point    97 :      -0.1333    0.4000    0.0000
  band No.  band energies     occupation 
      1     -14.7000      2.00000
      2     -14.3721      2.00000
      3      -9.1493      2.00000
      4      -8.8210      2.00000
      5      -5.1486      2.00000
      6      -4.7857      2.00000
      7      -4.1705      2.00000
      8      -3.9325      2.00000
      9      -2.9363      2.00000
     10      -2.4734      2.00000
     11      -0.6425      0.00000
     12      -0.1944      0.00000
     13       0.4677      0.00000
     14       0.7541      0.00000

 k-point    98 :      -0.0667    0.4000    0.0000
  band No.  band energies     occupation 
      1     -14.7372      2.00000
      2     -14.3872      2.00000
      3      -9.2251      2.00000
      4      -8.8734      2.00000
      5      -4.7930      2.00000
      6      -4.6207      2.00000
      7      -3.9567      2.00000
      8      -3.7605      2.00000
      9      -2.6501      2.00000
     10      -2.3738      2.00000
     11      -0.7862      0.00000
     12      -0.3871      0.00000
     13       0.1980      0.00000
     14       0.3489      0.00000

 k-point    99 :      -0.0000    0.4667   -0.0000
  band No.  band energies     occupation 
      1     -14.6071      2.00000
      2     -14.4835      2.00000
      3      -9.2333      2.00000
      4      -9.1099      2.00000
      5      -4.5563      2.00000
      6      -4.3378      2.00000
      7      -3.8784      2.00000
      8      -3.6846      2.00000
      9      -2.5827      2.00000
     10      -2.2419      2.00000
     11      -0.9199      0.00000
     12      -0.4832      0.00000
     13      -0.0899      0.00000
     14       0.1087      0.00000

 k-point   100 :       0.0667    0.4667    0.0000
  band No.  band energies     occupation 
      1     -14.5986      2.00000
      2     -14.4741      2.00000
      3      -9.2044      2.00000
      4      -9.0842      2.00000
      5      -4.5748      2.00000
      6      -4.4375      2.00000
      7      -4.0293      2.00000
      8      -3.9013      2.00000
      9      -2.5255      2.00000
     10      -2.3831      2.00000
     11      -0.8248      0.00000
     12      -0.7200      0.00000
     13       0.2651      0.00000
     14       0.5787      0.00000

 k-point   101 :       0.1333    0.4667   -0.0000
  band No.  band energies     occupation 
      1     -14.5710      2.00000
      2     -14.4503      2.00000
      3      -9.1209      2.00000
      4      -9.0104      2.00000
      5      -4.8474      2.00000
      6      -4.6944      2.00000
      7      -4.2609      2.00000
      8      -4.1497      2.00000
      9      -2.8573      2.00000
     10      -2.6829      2.00000
     11      -0.5813      0.00000
     12      -0.3297      0.00000
     13       0.7634      0.00000
     14       0.8640      0.00000

 k-point   102 :       0.2000    0.4667    0.0000
  band No.  band energies     occupation 
      1     -14.5281      2.00000
      2     -14.4159      2.00000
      3      -8.9862      2.00000
      4      -8.8933      2.00000
      5      -5.3676      2.00000
      6      -5.0683      2.00000
      7      -4.4398      2.00000
      8      -4.2307      2.00000
      9      -3.3859      2.00000
     10      -3.0888      2.00000
     11      -0.0613      0.00000
     12       0.3263      0.00000
     13       0.9847      0.00000
     14       1.2211      0.00000

 k-point   103 :       0.2667    0.4667    0.0000
  band No.  band energies     occupation 
      1     -14.4756      2.00000
      2     -14.3771      2.00000
      3      -8.8081      2.00000
      4      -8.7424      2.00000
      5      -5.8519      2.00000
      6      -5.5149      2.00000
      7      -4.6306      2.00000
      8      -4.4077      2.00000
      9      -3.7429      2.00000
     10      -3.4352      2.00000
     11       0.4556      0.00000
     12       0.8346      0.00000
     13       1.3803      0.00000
     14       1.6532      0.00000

 k-point   104 :       0.3333    0.4667   -0.0000
  band No.  band energies     occupation 
      1     -14.4214      2.00000
      2     -14.3416      2.00000
      3      -8.6030      2.00000
      4      -8.5745      2.00000
      5      -6.2521      2.00000
      6      -5.9169      2.00000
      7      -4.9359      2.00000
      8      -4.7106      2.00000
      9      -3.8568      2.00000
     10      -3.6057      2.00000
     11       0.8109      0.00000
     12       1.0882      0.00000
     13       1.9294      0.00000
     14       2.2457      0.00000

 k-point   105 :       0.4000    0.4667   -0.0000
  band No.  band energies     occupation 
      1     -14.3737      2.00000
      2     -14.3172      2.00000
      3      -8.4183      2.00000
      4      -8.4047      2.00000
      5      -6.5332      2.00000
      6      -6.2481      2.00000
      7      -5.2019      2.00000
      8      -5.0260      2.00000
      9      -3.8516      2.00000
     10      -3.6738      2.00000
     11       1.0561      0.00000
     12       1.2126      0.00000
     13       2.4213      0.00000
     14       2.7015      0.00000

 k-point   106 :       0.4667    0.4667    0.0000
  band No.  band energies     occupation 
      1     -14.3402      2.00000
      2     -14.3104      2.00000
      3      -8.3185      2.00000
      4      -8.2753      2.00000
      5      -6.6487      2.00000
      6      -6.4825      2.00000
      7      -5.3122      2.00000
      8      -5.2467      2.00000
      9      -3.8142      2.00000
     10      -3.7144      2.00000
     11       1.2168      0.00000
     12       1.2469      0.00000
     13       2.6602      0.00000
     14       2.7963      0.00000

 k-point   107 :      -0.4667    0.4667    0.0000
  band No.  band energies     occupation 
      1     -14.3259      2.00000
      2     -14.3244      2.00000
      3      -8.3246      2.00000
      4      -8.2758      2.00000
      5      -6.5696      2.00000
      6      -6.5606      2.00000
      7      -5.3151      2.00000
      8      -5.2361      2.00000
      9      -3.7735      2.00000
     10      -3.7545      2.00000
     11       1.1894      0.00000
     12       1.2753      0.00000
     13       2.6902      0.00000
     14       2.7590      0.00000

 k-point   108 :      -0.4000    0.4667   -0.0000
  band No.  band energies     occupation 
      1     -14.3586      2.00000
      2     -14.3317      2.00000
      3      -8.4448      2.00000
      4      -8.3927      2.00000
      5      -6.4772      2.00000
      6      -6.3014      2.00000
      7      -5.2115      2.00000
      8      -4.9996      2.00000
      9      -3.7921      2.00000
     10      -3.7306      2.00000
     11       1.0431      0.00000
     12       1.2275      0.00000
     13       2.4622      0.00000
     14       2.6355      0.00000

 k-point   109 :      -0.3333    0.4667    0.0000
  band No.  band energies     occupation 
      1     -14.4076      2.00000
      2     -14.3546      2.00000
      3      -8.6298      2.00000
      4      -8.5636      2.00000
      5      -6.2252      2.00000
      6      -5.9371      2.00000
      7      -4.9629      2.00000
      8      -4.6697      2.00000
      9      -3.7988      2.00000
     10      -3.6551      2.00000
     11       0.8154      0.00000
     12       1.0852      0.00000
     13       1.9710      0.00000
     14       2.1936      0.00000

 k-point   110 :      -0.2667    0.4667    0.0000
  band No.  band energies     occupation 
      1     -14.4638      2.00000
      2     -14.3881      2.00000
      3      -8.8248      2.00000
      4      -8.7401      2.00000
      5      -5.8498      2.00000
      6      -5.5059      2.00000
      7      -4.6692      2.00000
      8      -4.3685      2.00000
      9      -3.6960      2.00000
     10      -3.4600      2.00000
     11       0.4763      0.00000
     12       0.8137      0.00000
     13       1.4071      0.00000
     14       1.6231      0.00000

 k-point   111 :      -0.2000    0.4667    0.0000
  band No.  band energies     occupation 
      1     -14.5188      2.00000
      2     -14.4244      2.00000
      3      -8.9961      2.00000
      4      -8.8948      2.00000
      5      -5.3848      2.00000
      6      -5.0380      2.00000
      7      -4.4689      2.00000
      8      -4.2088      2.00000
      9      -3.3704      2.00000
     10      -3.0724      2.00000
     11      -0.0350      0.00000
     12       0.2952      0.00000
     13       0.9977      0.00000
     14       1.2099      0.00000

 k-point   112 :      -0.1333    0.4667    0.0000
  band No.  band energies     occupation 
      1     -14.5646      2.00000
      2     -14.4561      2.00000
      3      -9.1264      2.00000
      4      -9.0127      2.00000
      5      -4.8782      2.00000
      6      -4.6645      2.00000
      7      -4.2679      2.00000
      8      -4.1375      2.00000
      9      -2.8712      2.00000
     10      -2.6329      2.00000
     11      -0.5661      0.00000
     12      -0.3516      0.00000
     13       0.7722      0.00000
     14       0.8693      0.00000

 k-point   113 :      -0.0667    0.4667    0.0000
  band No.  band energies     occupation 
      1     -14.5953      2.00000
      2     -14.4771      2.00000
      3      -9.2068      2.00000
      4      -9.0858      2.00000
      5      -4.5655      2.00000
      6      -4.4637      2.00000
      7      -4.0270      2.00000
      8      -3.8862      2.00000
      9      -2.4726      2.00000
     10      -2.4126      2.00000
     11      -0.8269      0.00000
     12      -0.7106      0.00000
     13       0.2730      0.00000
     14       0.5607      0.00000


--------------------------------------------------------------------------------------------------------


 soft charge-density along one line, spin component           1
         0         1         2         3         4         5         6         7         8         9
 total charge-density along one line
 
 pseudopotential strength for first ion, spin component:           1
 30.094 -23.441   0.004  -0.089   0.035   0.007  -0.141   0.055
-23.441  28.121  -0.002   0.050  -0.019  -0.004   0.082  -0.031
  0.004  -0.002   6.333   0.000   0.000   9.798   0.000   0.000
 -0.089   0.050   0.000   6.331   0.002   0.000   9.794   0.003
  0.035  -0.019   0.000   0.002   6.333   0.000   0.003   9.797
  0.007  -0.004   9.798   0.000   0.000  15.229   0.000   0.000
 -0.141   0.082   0.000   9.794   0.003   0.000  15.222   0.004
  0.055  -0.031   0.000   0.003   9.797   0.000   0.004  15.228
  0.000   0.000   0.007   0.000   0.001   0.011   0.000   0.001
  0.000  -0.000  -0.020   0.001   0.000  -0.031   0.002   0.000
 -0.002   0.003  -0.001  -0.023  -0.004  -0.001  -0.035  -0.006
  0.003  -0.002   0.000   0.008  -0.020   0.000   0.013  -0.031
 -0.000   0.000  -0.001  -0.000   0.008  -0.002  -0.000   0.013
 total augmentation occupancy for first ion, spin component:           1
  2.025  -0.015  -0.011   0.238  -0.087   0.002  -0.042   0.016   0.002   0.000   0.023   0.002  -0.000
 -0.015   0.009   0.003  -0.073   0.027  -0.001   0.018  -0.006  -0.000   0.000  -0.002   0.001  -0.000
 -0.011   0.003   1.508   0.001   0.001  -0.405  -0.002  -0.000   0.123  -0.043  -0.009   0.000   0.002
  0.238  -0.073   0.001   1.840  -0.001  -0.002  -0.486  -0.014  -0.000  -0.002  -0.268  -0.017  -0.000
 -0.087   0.027   0.001  -0.001   1.492  -0.000  -0.014  -0.395   0.016   0.000  -0.078  -0.045  -0.006
  0.002  -0.001  -0.405  -0.002  -0.000   0.118   0.001   0.000  -0.033   0.012   0.002  -0.000  -0.001
 -0.042   0.018  -0.002  -0.486  -0.014   0.001   0.140   0.007  -0.000   0.000   0.074   0.004   0.000
  0.016  -0.006  -0.000  -0.014  -0.395   0.000   0.007   0.114  -0.004  -0.000   0.021   0.012   0.002
  0.002  -0.000   0.123  -0.000   0.016  -0.033  -0.000  -0.004   0.076   0.001   0.001   0.000   0.000
  0.000   0.000  -0.043  -0.002   0.000   0.012   0.000  -0.000   0.001   0.021   0.000  -0.000  -0.000
  0.023  -0.002  -0.009  -0.268  -0.078   0.002   0.074   0.021   0.001   0.000   0.078   0.005   0.002
  0.002   0.001   0.000  -0.017  -0.045  -0.000   0.004   0.012   0.000  -0.000   0.005   0.022   0.001
 -0.000  -0.000   0.002  -0.000  -0.006  -0.001   0.000   0.002   0.000  -0.000   0.002   0.001   0.017


------------------------ aborting loop because EDIFF is reached ----------------------------------------


    CHARGE:  cpu time    0.1747: real time    0.1748
    FORLOC:  cpu time    0.0018: real time    0.0018
    FORNL :  cpu time    0.3097: real time    0.3099
    STRESS:  cpu time    0.5915: real time    0.5924
    FORCOR:  cpu time    0.0389: real time    0.0389
    FORHAR:  cpu time    0.0101: real time    0.0101
    MIXING:  cpu time    0.0008: real time    0.0008
    OFIELD:  cpu time    0.0000: real time    0.0000

  FORCE on cell =-STRESS in cart. coord.  units (eV):
  Direction    XX          YY          ZZ          XY          YZ          ZX
  --------------------------------------------------------------------------------------
  Alpha Z     9.43386     9.43386     9.43386
  Ewald    1628.87552  1633.10979 -2086.59433    -1.29985    13.89659    13.86812
  Hartree  1749.33212  1750.93238 -1702.56096    -0.48607    12.89991    12.89528
  E(xc)     -77.66544   -77.67898   -78.88773    -0.01646     0.00443     0.00442
  Local   -3630.85748 -3636.14839  3534.39317     1.81822   -26.78564   -26.75748
  n-local   162.52593   162.70395   167.20972     0.04495    -0.01606    -0.01776
  augment   -31.87532   -31.82141   -32.80211    -0.00510     0.00367     0.00322
  Kinetic   190.22854   189.48287   189.80591    -0.21354    -0.00444     0.00572
  Fock        0.00000     0.00000     0.00000     0.00000     0.00000     0.00000
  -------------------------------------------------------------------------------------
  Total      -0.00227     0.01407    -0.00245    -0.15785    -0.00154     0.00153
  in kB      -0.00961     0.05950    -0.01038    -0.66723    -0.00650     0.00646
  external pressure =        0.01 kB  Pullay stress =        0.00 kB


 VOLUME and BASIS-vectors are now :
 -----------------------------------------------------------------------------
  energy-cutoff  :      600.00
  volume of cell :      379.03
      direct lattice vectors                 reciprocal lattice vectors
     4.382356765  0.016433838  0.016433838     0.228194091 -0.000852555 -0.000846184
     0.016096792  4.292477857  0.016096792    -0.000870406  0.232972178 -0.000863902
     0.075000000  0.075000000 20.150000000    -0.000185414 -0.000185414  0.049629172

  length of vectors
     4.382418391  4.292538220 20.150279154     0.228197252  0.232975406  0.049629865


 FORCES acting on ions
    electron-ion (+dipol)            ewald-force                    non-local-force                 convergence-correction
 -----------------------------------------------------------------------------------------------
   0.474E+01 0.102E+01 -.145E+03   -.623E+01 -.121E+01 0.148E+03   0.149E+01 0.191E+00 -.381E+01   0.310E-03 -.108E-03 0.340E-03
   0.366E+01 -.511E-01 0.145E+03   -.512E+01 -.112E+00 -.148E+03   0.146E+01 0.163E+00 0.382E+01   -.309E-03 0.268E-04 0.256E-03
   -.446E+01 0.158E+00 -.207E+03   0.489E+01 -.120E+00 0.209E+03   -.434E+00 -.389E-01 -.204E+01   -.140E-02 0.714E-03 0.923E-03
   -.601E+01 -.139E+01 0.207E+03   0.646E+01 0.145E+01 -.209E+03   -.449E+00 -.539E-01 0.203E+01   0.141E-02 0.267E-03 0.842E-03
 -----------------------------------------------------------------------------------------------
   -.207E+01 -.262E+00 -.116E-01   0.000E+00 0.444E-15 0.000E+00   0.207E+01 0.262E+00 0.929E-02   0.458E-05 0.900E-03 0.236E-02
 
 
 POSITION                                       TOTAL-FORCE (eV/Angst)
 -----------------------------------------------------------------------------------
      2.59085      3.27666     11.47176         0.000276      0.000107      0.000191
      0.40253      1.13231      8.70526        -0.000342      0.000103      0.000858
      0.18077      1.09100     11.42068         0.000212     -0.000463     -0.000849
      2.39049      3.25517      8.75467        -0.000146      0.000253     -0.000200
 -----------------------------------------------------------------------------------
    total drift:                               -0.000218      0.000179      0.000089


--------------------------------------------------------------------------------------------------------



  FREE ENERGIE OF THE ION-ELECTRON SYSTEM (eV)
  ---------------------------------------------------
  free  energy   TOTEN  =       -16.26381959 eV

  energy  without entropy=      -16.26381959  energy(sigma->0) =      -16.26381959
 
 d Force = 0.4021588E-06[ 0.283E-06, 0.522E-06]  d Energy = 0.4672049E-06-0.650E-07
 d Force =-0.5744727E-02[-0.574E-02,-0.574E-02]  d Ewald  =-0.5744727E-02-0.114E-10


--------------------------------------------------------------------------------------------------------


    POTLOK:  cpu time    0.0405: real time    0.0406


--------------------------------------------------------------------------------------------------------


 Conjugate gradient step on ions:
 trial-energy change:   -0.000000  1 .order   -0.000000   -0.000001   -0.000000
  (g-gl).g = 0.314E-06      g.g   = 0.310E-06  gl.gl    = 0.267E-06
 g(Force)  = 0.310E-06   g(Stress)= 0.000E+00 ortho     = 0.224E-09
 gamma     =   1.17639
 trial     =   1.68127
 opt step  =   3.67133  (harmonic =   3.67133) maximal distance =0.00033144
 next E    =   -16.263820   (d E  =  -0.00000)


--------------------------------------------------------------------------------------------------------


  
 reached required accuracy - stopping structural energy minimisation
 writing wavefunctions
     LOOP+:  cpu time    7.1478: real time    7.5882
    4ORBIT:  cpu time    0.0000: real time    0.0000

 total amount of memory used by VASP MPI-rank0    64485. kBytes
=======================================================================

   base      :      30000. kBytes
   nonl-proj :      13033. kBytes
   fftplans  :       2714. kBytes
   grid      :       4404. kBytes
   one-center:          8. kBytes
   wavefun   :      14326. kBytes
 
  
  
 General timing and accounting informations for this job:
 ========================================================
  
                  Total CPU time used (sec):      267.589
                            User time (sec):      266.588
                          System time (sec):        1.001
                         Elapsed time (sec):      278.781
  
                   Maximum memory used (kb):      216284.
                   Average memory used (kb):           0.
  
                          Minor page faults:       166783
                          Major page faults:          147
                 Voluntary context switches:        11524
