 running on  192 total cores
 distrk:  each k-point on  192 cores,    1 groups
 distr:  one band on   24 cores,    8 groups
 using from now: INCAR     
 vasp.5.4.4.18Apr17-6-g9f103f2a35 (build Feb 21 2024 19:30:58) complex          
  
 POSCAR found type information on POSCAR  S  Pb
 POSCAR found :  2 types and      12 ions
 scaLAPACK will be used
 WARNING: PSMAXN for non-local potential too small
 LDA part: xc-table for Pade appr. of Perdew
 found WAVECAR, reading the header
  number of k-points has changed, file:    25 present:    40
  trying to continue reading WAVECAR, but it might fail
 WARNING: stress and forces are not correct
 POSCAR, INCAR and KPOINTS ok, starting setup
 FFT: planning ...
 reading WAVECAR
 the WAVECAR file was read successfully
 charge-density read from file: unknown                                 
 entering main loop
       N       E                     dE             d eps       ncg     rms          rms(c)
DAV:   1    -0.401451767728E+02   -0.40145E+02   -0.70775E+02  4480   0.669E+01
DAV:   2    -0.514402193433E+02   -0.11295E+02   -0.11122E+02  4088   0.276E+01
DAV:   3    -0.517799630855E+02   -0.33974E+00   -0.33768E+00  4424   0.595E+00
DAV:   4    -0.517893833964E+02   -0.94203E-02   -0.93867E-02  4312   0.946E-01
DAV:   5    -0.517897273994E+02   -0.34400E-03   -0.34172E-03  4464   0.157E-01
DAV:   6    -0.517897483297E+02   -0.20930E-04   -0.20925E-04  4136   0.278E-02
DAV:   7    -0.517897488091E+02   -0.47941E-06   -0.47210E-06  3296   0.441E-03
   1 F= -.51789749E+02 E0= -.51789749E+02  d E =0.000000E+00
 writing wavefunctions
