    6    6    1    1
  0.7242000E+02  0.6390000E-09  0.3400000E-09  0.2000000E-08  0.5000000E-15
  1.000000000000000E-004
  CAR 
 unknown system                          
     36     20     22
