 running on    8 total cores
 distrk:  each k-point on    8 cores,    1 groups
 distr:  one band on    4 cores,    2 groups
 using from now: INCAR     
 vasp.5.4.4.18Apr17-6-g9f103f2a35 (build Sep 16 2021 13:51:27) complex          
  
 POSCAR found type information on POSCAR  Mo Te
 POSCAR found :  2 types and       6 ions
 scaLAPACK will be used
 LDA part: xc-table for Pade appr. of Perdew
 found WAVECAR, reading the header
 POSCAR, INCAR and KPOINTS ok, starting setup
 FFT: planning ...
 reading WAVECAR
 the WAVECAR file was read successfully
 initial charge from wavefunction
 entering main loop
       N       E                     dE             d eps       ncg     rms          rms(c)
DAV:   1    -0.351088560134E+02   -0.35109E+02   -0.10375E+00   880   0.522E+00    0.767E-01
DAV:   2    -0.350812312362E+02    0.27625E-01   -0.62394E-01  1294   0.369E+00    0.102E+00
DAV:   3    -0.350560399810E+02    0.25191E-01   -0.25760E-01  1278   0.207E+00    0.402E-01
