./data/2H-MoS2-sorted-out.lmp (written by ASE) 

8280 	 atoms 
2  atom types
0.0      253.84800719382486  xlo xhi
0.0      95.581365232395967  ylo yhi
0.0                      20  zlo zhi


Atoms 

     1   2 -0.20793122099516528      144.55892760651932      46.247270740722136       11.63299491174241
     2   2 -0.20813105414123728      216.30685868376128      81.306219326815608      11.630403404754757
     3   2 -0.20783905610054723      147.32285397524402      44.650037785206578      11.629090025654465
     4   2 -0.207580938775069      232.87920185301925      14.409918636391509      11.627368107048227
     5   2 -0.20767626932581285      185.95009473500738      28.751746923034574      11.627331905151587
     6   2 -0.20797291826602013      224.56887646901663      73.345654348222553      11.627316260693917
     7   2 -0.20791456205315118       144.5641952373108      49.441741744964844       11.62634810648083
     8   2 -0.20775503118924588       180.4221306068934      92.487095700211725      11.625444314594073
     9   2 -0.20765377443417815      232.86762429091027      17.608864696218284       11.62540471646567
    10   2 -0.20755520149252757      185.93689554184471      25.553115168160463      11.625378024129086
    11   2 -0.20762869313955729       230.0962795100796      15.999958477132928       11.62526617711125
    12   2 -0.20775926733044453      141.79585009992726      47.846363958220124      11.624219473443038
    13   2 -0.20793494083835484      48.006245943596355      92.452881492451226      11.624208075512305
    14   2 -0.2080165217508947      147.32552264178992      47.844279949825932      11.623348410321235
    15   2 -0.20780306602408882      78.354089645032531      14.412518633286798      11.623321070813958
    16   2 -0.2077394980298483      144.55386592543289      43.054429364510924      11.623243601403461
    17   2 -0.20788780249152444      199.75398724210237      62.183099445215461      11.623161819560176
    18   2 -0.20774000550743366      28.689247950522649      52.643580344708482      11.622857347102203
    19   2 -0.20809290440831574      166.62845239868534      46.250859078791635      11.622723548372482
    20   2 -0.207464100322726      188.71149174107924        27.1596446294011      11.622580336474801
    21   2 -0.2076796373378605       235.6379975673872      16.010318163666291      11.622198423723541
    22   2 -0.20779790376454715      9.3538022366704769      44.675899772542323      11.622037283838132
    23   2 -0.2077512681585808      31.448639548535031      51.049161845860084      11.621492685669466
    24   2 -0.20787655177278946      141.80375139104729      12.806736690461118      11.621469381775428
    25   2 -0.20767651662562764      141.80096642996546      51.041762138024083      11.621101481148049
    26   2 -0.20792954307644812      183.19845036883112      30.337439030922738      11.620755517182335
    27   2 -0.20769660469918555      199.74565744330729      65.381866616645738      11.620456648260117
    28   2 -0.20796050667846244       252.1859053735559      79.703572939526211      11.620242346120737
    29   2 -0.20775454042806557      196.97316940332854      63.781326843168344      11.620037015442703
    30   2 -0.20789107025249703      166.62550395508867      43.054266260231522      11.619916643169924
    31   2 -0.20791422738802667      25.914522894305154      63.793266825343494      11.619724560950004
    32   2 -0.20784956948271127       9.367025608861228      19.150718813040328      11.619631948257933
    33   2 -0.20801395714300908      174.92206146656457      86.109532342145272       11.61931777279098
    34   2 -0.20766395272318067      177.66709203694057       90.89972603463363       11.61910468702871
    35   2 -0.2076677442919982      139.03816409348255      14.402773489804588      11.619046942998754
    36   2 -0.2079834145663634      97.660563997329319      41.476557240035554      11.619028245815965
    37   2 -0.20797194215111764      25.918234962937532      60.599754327776985      11.618943102355798
    38   2 -0.2075787003213851      75.564336869274868      66.982795420563519      11.618915883560113
    39   2 -0.2076893123350836      78.340884151668433      65.379164364412816      11.618892999096301
    40   2 -0.20789612731377835      183.19335607731398      90.889113967581693      11.618795311288062
    41   2 -0.20778597144154065      14.887094818514026      28.723117871568309      11.618735551521807
    42   2 -0.20778632508816103      75.571619097676361      63.787181659559344      11.618595635896492
    43   2 -0.20801653903511394      227.34291034035118      71.743107569533564      11.618196758463249
    44   2 -0.20777022568764608      180.44383646897512      31.936670665546938      11.618013326959359
    45   2 -0.2077312666978261      174.91390503677812      89.303515098448585       11.61787180002853
    46   2 -0.2075602502107519      235.63184558361718       19.19730867543867      11.617775129753593
    47   2 -0.20752245725539853      28.676065876602376      49.445158006315353      11.617730380222675
    48   2 -0.20753316429810587      12.122710390865794      43.076726926459024      11.617624265930132
    49   2 -0.20765756417203632      158.35801110880274      89.276618131165378      11.617576464113652
    50   2 -0.20779227947912823      238.39271454335949      17.597501746011407      11.617291824342988
    51   2 -0.20786128623972033       36.95143554410042      66.986662368754466      11.617206764741525
    52   2 -0.20778490671881733      139.04390151871291      11.206151612424419       11.61714799052155
    53   2 -0.20712992497437804      235.62162856715889      22.376106689680466      11.616897774323544
    54   2 -0.20777973746910683      202.50043877204405      19.181093265574834       11.61686734503823
    55   2 -0.20799035037752578        50.7732461447495      94.063429746576475      11.616858581617862
    56   2 -0.20783416675422284      183.18402971654427      94.083425620565507      11.616818105028894
    57   2 -0.20778406132132218      72.819541107674013      8.0435124147669583      11.616797797895114
    58   2 -0.20789740999519762      172.15401610658341      87.700370266833858      11.616434282346578
    59   2 -0.2079242640346627      221.83578842825082      46.261614394585706      11.616407655458445
    60   2 -0.207510451633604      238.39096555525458      20.776088173434076      11.616385442270495
    61   2 -0.20761619919864072      161.12396950060045      87.682595959321873      11.616187688699947
    62   2 -0.20765799783100336      48.004188344459607      35.116205475862429      11.615996614142864
    63   2 -0.20767417938658006       213.5370302665626      82.914970114393299      11.615965698341334
    64   2 -0.2074950740894335      188.70688153440759      23.959394768755431       11.61589691986584
    65   2 -0.20814598617692492      75.585763482192419      9.6402110925536579      11.615885272437232
    66   2 -0.20762601927834984       12.12190438433222      46.284344081159794      11.615866092912302
    67   2 -0.20805620964174254      219.08210404784575      82.912456808607217      11.615831130999773
    68   2 -0.20791484566972596      53.523884281273325       63.76447862179856      11.615808904699385
    69   2 -0.20791043011586963      230.10740113585405      31.928140359922772       11.61568986451784
    70   2 -0.20769176080553592      221.80955075772508      71.743653755875712      11.615488715781771
    71   2 -0.2075462868750704      161.11808582254798      90.883515559998827      11.615375965416147
    72   2 -0.2077594312092059      12.123684545466437      27.127835272976768      11.615306529097923
    73   2 -0.2078895000467354      75.580257501744356      12.823446266177356      11.615248122653469
    74   2 -0.20793460728788182      39.726367812704623      65.386566308749636      11.615127017402653
    75   2 -0.20785265572105666      1.0992942514606858      78.115564497417537      11.615112536053376
    76   2 -0.2078032180307932      94.897989671637319      39.876257313721808       11.61497840724545
    77   2 -0.20804141371070067      224.57613772852301       70.14353590669306      11.614920698074057
    78   2 -0.2080018778500555      213.53577685881365      60.593128209754958      11.614898318349919
    79   2 -0.20778596773951757      39.715408830145186      68.579675264328728       11.61488773484688
    80   2 -0.20777975207001603      6.5844383494115446      46.280383847857827      11.614750324933196
    81   2 -0.20793255234972796      177.68933813275567      87.709135820765724      11.614680780152574
    82   2 -0.20786997748527253      144.56639469138781      11.205221781019954      11.614663417751064
    83   2 -0.2078021567966683      61.811177972158319      46.254356755343629      11.614634234449984
    84   2 -0.2078304523497596      172.17891731609666      65.372572931073549      11.614511710351445
    85   2 -0.20736668342496264      78.333930157062511      68.578775562974783      11.614444827444892
    86   2 -0.20763339267490383      78.349433518706633      17.601307913549302      11.614290608951197
    87   2 -0.20768161565782667      83.882985461608229      36.712521842469471      11.614220640517194
    88   2 -0.20797478885174248       78.35441139040276      11.227204613705677      11.614202141070399
    89   2 -0.20778362480636575      53.509867513446828      38.300189706061687      11.614169292211027
    90   2 -0.20787781713588882       50.77211958253794      90.860304532121901      11.614136063507239
    91   2 -0.2076736579573698      48.006169500047776    0.074031865968546162      11.614076817523619
    92   2 -0.20784979581037558      205.26517130450193      17.589480490660229       11.61400556866824
    93   2 -0.2079673775656936      219.07642288778541      79.705316692339125      11.613919866652541
    94   2 -0.2077797454760077       216.3087328255836      84.519690358335026      11.613866858701403
    95   2 -0.20743997724436247      180.43908930605556      79.740518817875198      11.613838917466651
    96   2 -0.2077989943984868      144.56716038276815       14.40347372806673      11.613830218836926
    97   2 -0.20753732054631113      45.240514859062515      94.055394154662565      11.613753263246517
    98   2 -0.20756256257966843      141.79012701081919      44.661222426672971      11.613733705072576
    99   2 -0.20796734368265274      230.11098026801469      28.731942093501296       11.61370396141106
   100   2 -0.2080728704058532      97.668984156203834      38.288303006217653      11.613696271758929
   101   2 -0.2079598384827098      28.687936955628711      74.944358469868106      11.613606827517097
   102   2 -0.2078598130132865      59.035980183637058      86.098277455052369      11.613558768860118
   103   2 -0.20777121259519388      28.684489175853038      62.196962443907189      11.613498579777351
   104   2 -0.20757415771804472      45.246022263264713      90.852252013320737      11.613478707336967
   105   2 -0.20785294416161837      183.21712409285425      33.543727298886026      11.613444435501638
   106   2 -0.20779201356449234      241.16236413686283      15.990178466087352      11.613440520577042
   107   2 -0.20770722093839258      141.80348253311499      16.002371108277888      11.613290077859418
   108   2 -0.20779292675055933      169.39578745638406      86.096186955385932      11.613244059388066
   109   2 -0.2078162708302832      161.12049053925858      30.314184642989375      11.613159244469966
   110   2 -0.2079498746709451      100.40795177377007      55.825667451455878      11.613152328437181
   111   2 -0.20766356975189648      136.29884967865297      89.276771001924317      11.613149199034302
   112   2 -0.20777712598139672       111.4403138054186      1.6467746076310132      11.613146347069124
   113   2 -0.20815221246843524      100.43139498426463      39.889807627346038      11.613136767299176
   114   2 -0.20760944558472338      230.10764693675679       12.81094859526527      11.613130623590056
   115   2 -0.207844471209626      48.018016077425372      31.908108823573563      11.613115834869788
   116   2 -0.20786564798962656      83.874418966571085      81.318716086792705      11.613055657705637
   117   2 -0.2077894961784242       6.610178665151321      20.744791166089758      11.613018453711824
   118   2 -0.20782329274698835      28.695187418163943      55.834954502952421      11.612978896687318
   119   2 -0.20765169848131548       128.0124597251276      81.305819346089066      11.612975148324695
   120   2 -0.20773227296319552      31.457263359853844      54.249318745313303      11.612873642432721
   121   2 -0.20738284283737746      36.968133847109605      92.457303950035836       11.61287077695637
   122   2 -0.2076159004964663       9.364559597298955      15.954135580561744      11.612829127132509
   123   2 -0.20791226868421694      169.40097303026695      9.6321265849552766      11.612784476981259
   124   2 -0.20757711329920447      205.26790533504371      20.787874785078714      11.612644165564779
   125   2 -0.20788579228499024      180.43831570690389      89.295334279581354      11.612621063370932
   126   2 -0.20773041101759135      216.30854615220511       58.99735461276893      11.612619578154312
   127   2 -0.2077640004123596      169.40043189298149      44.663280223352288      11.612564352473415
   128   2 -0.20753370600370674      232.88546830020516      55.837991466734188      11.612543509099243
   129   2 -0.20795633808576652      56.290074474837205      62.174355650753789      11.612542817904584
   130   2 -0.20769567664270822      94.894093106355157      43.063315309008793      11.612435690007283
   131   2 -0.20774286578376983      241.15605268039087      19.181834241430842      11.612396090241756
   132   2 -0.20756941972322218      39.736095048779859      90.860742739021575      11.612348537074434
   133   2 -0.20789978192378727      36.971165353968317      89.263873272848883      11.612342371050449
   134   2 -0.207780294456507      177.68811941407859      84.519798998518894      11.612305806258663
   135   2 -0.20773436381989296      111.45127000406865      71.732056956336166      11.612301864779109
   136   2 -0.20778999190972175      67.318344238673362      33.504899990894714        11.6122973968792
   137   2 -0.2078440914010739      216.31509600398621      62.195600263131119      11.612256391412563
   138   2 -0.2079356350305267      89.367610540464767      78.125479392960884      11.612217346966155
   139   2 -0.2079268199832663      75.579988954430277       6.439388271865508      11.612137746912351
   140   2 -0.20755637915477831      177.67217048235113       81.33084866734788      11.612083399130039
   141   2 -0.20787660425241233      191.44663056179311       9.637745573025569      11.612072138129422
   142   2 -0.20785414913613282      81.111811760385564      35.129337959335743      11.612039272326809
   143   2 -0.20794510847598655      61.823946400738365      49.453620368344936      11.612027413156468
   144   2 -0.20775337277063016      14.892672930237852      25.523436283938672      11.611987377776902
   145   2 -0.20796609246567457      169.41028808238806      63.773316279116202      11.611942361647248
   146   2 -0.2075765256195526      180.41659482756441    0.093288320112742754      11.611940959842991
   147   2 -0.20783916756277235      116.96218804860077      11.214532033848148      11.611919598416613
   148   2 -0.2078275997505795      12.132431973224991      23.931803424916453       11.61190808770618
   149   2 -0.20804637355678623       31.45147606451183      73.346725848351056      11.611859659821841
   150   2 -0.20799510244531533      122.49078838653318      59.018602035454983      11.611856535990917
   151   2 -0.20793076519556036      1.0948707749884952      62.214865226110938      11.611848629255951
   152   2 -0.20783612321415013      185.95290762650689      92.493163526133202       11.61179226067606
   153   2 -0.2078297183543656      72.834784370930265      74.945222888257888      11.611778488579736
   154   2 -0.2078091678383614      72.844537657567784      78.136752465642672      11.611775566555805
   155   2 -0.2076608408502467      6.5975187304895648      17.557194092536246      11.611731708484751
   156   2 -0.2077486289952809        227.342531661686      74.946083285592394      11.611726978406669
   157   2 -0.2076271485367635       139.0305653651761      49.448171256562404      11.611715964389898
   158   2 -0.20789784049770343      70.068335756546404      76.546964715253452      11.611714265725745
   159   2 -0.20768786627326208      78.344302617374609      62.190193905840381      11.611703058526379
   160   2 -0.2076170569795366      34.192121218823232      68.579178049909117      11.611654869683452
   161   2 -0.20789676756309103      81.122639433524284      31.931446247759943      11.611632350141601
   162   2 -0.20767643279892692      158.35467789631184      92.468824630822141        11.6116208994116
   163   2 -0.20780048946506008      50.755487212932096      36.709721199367543      11.611586785704176
   164   2 -0.20738856352639023      238.38980838556205      23.971943418462686      11.611552053566578
   165   2 -0.2077887667185706      196.98054186826576      60.593697059485471       11.61151016534393
   166   2 -0.20776825227344087      147.32387428702728      51.034731013714079      11.611484222383282
   167   2 -0.2076185271454387      199.74049509213521      20.773397907033807      11.611471391698757
   168   2 -0.20792420236115314      249.42342410960285      81.304321069825107      11.611317528168344
   169   2 -0.20787449263551888      183.19538408412205      65.385382325750427      11.611311853177527
   170   2 -0.2076550626297683       28.67754048090185      65.389830060347506      11.611256033572976
   171   2 -0.207859862443849      238.39845939930899      14.402084402084004      11.611223895391957
   172   2 -0.20768510682574204      221.81144947404874      74.937616206238147      11.611174709629156
   173   2 -0.20753331901442168      183.17730051780453      27.140112972068231      11.611152304988341
   174   2 -0.20779649135863504      119.72124937740328      57.413494538736188      11.611135797214915
   175   2 -0.20756379733568678      1.0759327070309537      74.929302708039884      11.611107791375586
   176   2 -0.2076032756138144      208.02959427217897      31.933813088013235      11.611077115496602
   177   2 -0.20778255315254068      86.605717491086892      76.526704622153758      11.611074933317093
   178   2 -0.20779815421435827      221.84036366203486      43.057218832918409       11.61106812474131
   179   2 -0.20763281660486302      119.73600512251274      12.813602468699278      11.611003599551591
   180   2 -0.20769602184286584      116.95523868102434      14.404906307404701      11.611000444297567
   181   2 -0.20770987154742004       36.95458343303666      63.797643425660887      11.610981166837087
   182   2 -0.2077475306069261      252.21505866207002      82.902032995896164      11.610944432134763
   183   2 -0.20797715620245044      114.19928061266138      22.359460491460389      11.610924403496742
   184   2 -0.2079372437290475      34.193724897080976      4.8326641351667359      11.610922498325783
   185   2 -0.20823820810708915      103.16586278995004      54.214439092778093       11.61090996485998
   186   2 -0.207568191636791      59.027186435433748       82.90580049551285      11.610899831296191
   187   2 -0.2077731812450272      75.573028019255275      16.005092264826633      11.610894964921593
   188   2 -0.20771005941653675      139.06506413319588        90.8723642543967      11.610793119728021
   189   2 -0.20757326144990781      114.22096456484738      70.136223473724314      11.610764347933891
   190   2 -0.20791835820926757      56.282615865254826      65.367391520399863      11.610695679533686
   191   2 -0.20802487562617894       78.34423384830184       8.048984107246266      11.610694067179395
   192   2 -0.20799452202014868      166.64856501283998      62.176029968678613      11.610689626710091
   193   2 -0.20755351186137033      185.96601824486893      89.304357023025531      11.610668520108391
   194   2 -0.20764841440077764      14.882440059225047      44.677597636188743      11.610657015588828
   195   2 -0.20769580759332051      221.83247009636781      49.449106891365012      11.610647704695227
   196   2 -0.20782932209407257      12.133939008703791      20.747888644551868       11.61063678406661
   197   2 -0.2077993078154077      122.47305681616955      55.820180676088071      11.610615900168499
   198   2 -0.20767268971739855       169.3916253828433      6.4367914343544488      11.610520159784452
   199   2 -0.20760276377782297      34.187279754805147      65.384347871698807      11.610481204580156
   200   2 -0.2078218099334472      185.97456493528827      31.953950495330467       11.61044500690849
   201   2 -0.2075889254646874      147.32948321519231      41.455995915946815      11.610444468754384
   202   2 -0.20787120348610866      172.16702797259873      27.141536818529772      11.610444151535695
   203   2 -0.20779716298917433      185.94211635548561      22.367931886716335      11.610409932996895
   204   2 -0.20790984900669987      25.925451960831168      57.415732072434452      11.610406458243711
   205   2 -0.20775516114269266      130.78505460142918      82.901414614488047      11.610405367824097
   206   2 -0.20791156225828494      61.783511210063807      17.581108410077139      11.610374476325367
   207   2 -0.2076172267128406      241.14557492863716       22.36904192591485      11.610356843371473
   208   2 -0.20798953475170856      9.3702938097841457      22.340842823915718      11.610351638512766
   209   2 -0.2078955036209617       150.0839270489833      46.247806521884591      11.610343528191876
   210   2 -0.20798485655692894      166.63158321655359      87.693644717651523      11.610324856444411
   211   2 -0.20781629575167057        172.155771924622      84.504134413760212      11.610321939775494
   212   2 -0.2078699443289489      169.39420072064095       89.29032817515079      11.610299552305381
   213   2 -0.2078593673283327      136.29243514179066      92.460272813561417      11.610264962800636
   214   2 -0.2076923367910845      78.358201904390171      30.336336417892426      11.609988874366133
   215   2 -0.20787807245393847      92.123809485341866      76.525297668088413      11.609944083311721
   216   2 -0.20773033443289202      67.313715058958238      36.694610404999331      11.609860343661234
   217   2 -0.2077788325824491      89.363585455343468      74.926628650590274      11.609849129633785
   218   2 -0.20767660192437526      177.65174721865509      94.081394611430341      11.609800515397989
   219   2 -0.2079929688808764      86.624501447228141      79.720125591525402      11.609722997759867
   220   2 -0.20747550510821505      180.44425726623501      82.934299902153157      11.609675470488643
   221   2 -0.20782604276411576      216.30854727172368       78.10356976591504      11.609653257087659
   222   2 -0.20751455683939268      230.11532550212789      57.427053699307386      11.609647323576192
   223   2 -0.2076324460964237      42.483084178299166      70.159581112330741      11.609645849263773
   224   2 -0.20766846060462185      172.17369871658298       68.56047477615536      11.609630001184035
   225   2 -0.20768079772494977      141.82336479764032      73.334818107659999      11.609574767308569
   226   2 -0.2073939373380864      232.85651032209626      20.785541184911295      11.609556117711479
   227   2 -0.20796534124346905      213.54077459233679      63.777968750494374      11.609552458370761
   228   2 -0.20760671619468035      9.3572894066054335      47.884577454093822      11.609542709345515
   229   2 -0.207679131451191      230.09233161796269      19.188376477029667      11.609538439432809
   230   2 -0.20757395485348068      3.8527511719670731      22.350864210109123      11.609521547462796
   231   2 -0.20782598090941323      119.74121520299812      60.607950954606309      11.609519614210914
   232   2 -0.20772668213151005      136.27735181452442      12.804162883136605      11.609483371997591
   233   2 -0.20788208226793864      1.0882381958799678      65.406525925785999      11.609477674009023
   234   2 -0.20733465496886871      42.484500564394054      92.455680948036758      11.609476388767265
   235   2 -0.20788079676135474      114.19724690431234      95.626288699287116      11.609454288422469
   236   2 -0.20781031787542986      141.80226495604657      9.6076898782420734      11.609442170278573
   237   2 -0.20763051860536688      81.119059903441084      12.815255769327795      11.609417796672837
   238   2 -0.20747737620911846      177.68111070992171      30.333558274570141      11.609413143067723
   239   2 -0.2076451308679751      128.01679071929013      84.497082063085486      11.609413030322886
   240   2 -0.2078215909074373      53.517518869493827      66.958084040502087      11.609381252758707
   241   2 -0.20769354775384846      163.89519500946597      31.911756536785926      11.609367864141051
   242   2 -0.20777551455976323      39.740002055955941      87.672089014171377      11.609334350916861
   243   2 -0.2077365281137597      17.644782930275266      30.325099575110652      11.609269927212434
   244   2 -0.20775131517692239      28.691405596461742      59.012462652551513      11.609266850549442
   245   2 -0.20763967000341077      56.272937899610156      87.691204654290772      11.609246636733106
   246   2 -0.20792754736243335      163.87340836221134        89.2908979677253      11.609242049688623
   247   2 -0.20759593854630093      210.79120452533658      30.332483195432903      11.609239666798436
   248   2 -0.20802582334761383      103.16914563641498      57.423991214785474      11.609232827751976
   249   2 -0.20764125460366017      128.01079158647386      78.124345696930803      11.609221847416505
   250   2 -0.20759580017626378      59.030276221291729      70.148176504553547      11.609204702983892
   251   2 -0.20774048613001317       213.5549724349431      28.731558651794654      11.609164246865076
   252   2 -0.20770161973856316      61.799635454985001       84.50810824305789      11.609143092471211
   253   2 -0.20780757259020327      166.62791152767295      8.0371077568908973      11.609103270367983
   254   2 -0.2079184606364861      252.17236626162838      63.801749092932717      11.609028662157581
   255   2 -0.20770514869416679      199.75636480703568      58.992726941632313      11.608963479427818
   256   2 -0.20771886490708935      147.33000416931637       12.79534532454894      11.608913414168223
   257   2 -0.2075662280788521      139.03569194558079      17.592637218583921      11.608901487813215
   258   2 -0.2077406253439394       39.73423346827223      84.487782151139101      11.608851680108479
   259   2 -0.20763620241464287      144.56327005737276      52.636555997273902       11.60884686548782
   260   2 -0.207467757203519      199.73174577797144      30.333469784404009      11.608829183918569
   261   2 -0.20770302894676548      139.03746867350196      52.639306049574785      11.608741909358825
   262   2 -0.20759199491765837      6.6191336754707111      23.934624612526303      11.608718115612447
   263   2 -0.20792993887016445       50.77477312926392      33.501753661212156      11.608704773907849
   264   2 -0.20776122472926636      111.45322595022793      74.923836482179112      11.608682345129543
   265   2 -0.20765745458978319      130.78473684784217      79.716679320678523      11.608634526526586
   266   2 -0.2074894160773907      12.143462045095736      4.8379560268764417      11.608622021144727
   267   2 -0.20760656932554522      56.277459162613624      36.700846670022322      11.608614216966334
   268   2 -0.20784733783670384      219.06998779005642      47.850969276875489      11.608611962164037
   269   2 -0.20770472081251362      163.88432094784787      60.573823260617026      11.608604981617392
   270   2 -0.20744816415542502      202.50807909157737      66.969405557027926      11.608594990776727
   271   2 -0.2077018969452477      42.500481344656841       82.89556477110429      11.608594467528738
   272   2 -0.20777636820845388      249.42974327706975      33.506224125655002       11.60857726502821
   273   2 -0.20764369273905714       172.1649998866757      30.328838257954715      11.608516518367338
   274   2 -0.20783440527791858      252.15916720408353      76.514877969639272       11.60845579766565
   275   2 -0.20781380298697208      169.40043170902098       12.82267570467112      11.608450112843075
   276   2 -0.20756076493088454      202.50710004703541      22.374040421621782      11.608449150305626
   277   2 -0.20748445961522566      232.88404248931869      11.224425486336845       11.60841746129336
   278   2 -0.20755101023855899      111.44734468751919      68.546031087661206      11.608415712911443
   279   2 -0.20797722483497622      232.87498360385771      30.326125157506116      11.608403868057032
   280   2 -0.20769203137059705      56.274813544505555      68.554399215491813      11.608369369273598
   281   2 -0.20784522154088936      213.56535812753495       31.92080654463734      11.608352852328286
   282   2 -0.2075271608550059      31.426232671721277       66.97956110764153      11.608349078449393
   283   2 -0.20745927208601278       230.1150161571621      54.243277845663918      11.608343134383727
   284   2 -0.2076456945311202      42.492508309660423      66.961108040372594      11.608339159747954
   285   2 -0.20753023581583202      177.66492433660815      78.143655190652211      11.608294629107263
   286   2 -0.20776788718541236      17.651665397389216      27.121606678845279      11.608288135430195
   287   2 -0.20781612582590592      23.146456656982568      62.193455592591704      11.608238330553498