 vasp.5.4.4.18Apr17-6-g9f103f2a35 (build Sep 16 2021 13:51:27) complex          
  
 executed on             LinuxIFC date 2023.03.16  12:57:39
 running on   24 total cores
 distrk:  each k-point on   24 cores,    1 groups
 distr:  one band on NCORES_PER_BAND=  24 cores,    1 groups


--------------------------------------------------------------------------------------------------------


 INCAR:
 POTCAR:    PAW_PBE Sn 08Apr2002                  
 POTCAR:    PAW_PBE Se 06Sep2000                  

 ----------------------------------------------------------------------------- 
|                                                                             |
|           W    W    AA    RRRRR   N    N  II  N    N   GGGG   !!!           |
|           W    W   A  A   R    R  NN   N  II  NN   N  G    G  !!!           |
|           W    W  A    A  R    R  N N  N  II  N N  N  G       !!!           |
|           W WW W  AAAAAA  RRRRR   N  N N  II  N  N N  G  GGG   !            |
|           WW  WW  A    A  R   R   N   NN  II  N   NN  G    G                |
|           W    W  A    A  R    R  N    N  II  N    N   GGGG   !!!           |
|                                                                             |
|      For optimal performance we recommend to set                            |
|        NCORE= 4 - approx SQRT( number of cores)                             |
|      NCORE specifies how many cores store one orbital (NPAR=cpu/NCORE).     |
|      This setting can  greatly improve the performance of VASP for DFT.     |
|      The default,   NCORE=1            might be grossly inefficient         |
|      on modern multi-core architectures or massively parallel machines.     |
|      Do your own testing !!!!                                               |
|      Unfortunately you need to use the default for GW and RPA calculations. |
|      (for HF NCORE is supported but not extensively tested yet)             |
|                                                                             |
 ----------------------------------------------------------------------------- 

 POTCAR:    PAW_PBE Sn 08Apr2002                  
   VRHFIN =Sn: s2p2                                                             
   LEXCH  = PE                                                                  
   EATOM  =    94.0860 eV,    6.9151 Ry                                         
                                                                                
   TITEL  = PAW_PBE Sn 08Apr2002                                                
   LULTRA =        F    use ultrasoft PP ?                                      
   IUNSCR =        1    unscreen: 0-lin 1-nonlin 2-no                           
   RPACOR =    2.000    partial core radius                                     
   POMASS =  118.710; ZVAL   =    4.000    mass and valenz                      
   RCORE  =    3.000    outmost cutoff radius                                   
   RWIGS  =    2.960; RWIGS  =    1.566    wigner-seitz radius (au A)           
   ENMAX  =  103.236; ENMIN  =   77.427 eV                                      
   ICORE  =        3    local potential                                         
   LCOR   =        T    correct aug charges                                     
   LPAW   =        T    paw PP                                                  
   EAUG   =  263.585                                                            
   DEXC   =    0.000                                                            
   RMAX   =    3.078    core radius for proj-oper                               
   RAUG   =    1.300    factor for augmentation sphere                          
   RDEP   =    3.022    radius for radial grids                                 
   RDEPT  =    2.655    core radius for aug-charge                              
                                                                                
   Atomic configuration                                                         
   13 entries                                                                   
     n  l   j            E        occ.                                          
     1  0  0.50    -29007.2859   2.0000                                         
     2  0  0.50     -4378.8056   2.0000                                         
     2  1  1.50     -3930.4293   6.0000                                         
     3  0  0.50      -845.0264   2.0000                                         
     3  1  1.50      -698.5725   6.0000                                         
     3  2  2.50      -473.2839  10.0000                                         
     4  0  0.50      -133.9036   2.0000                                         
     4  1  1.50       -89.6752   6.0000                                         
     4  2  2.50       -25.8375  10.0000                                         
     5  0  0.50       -10.5484   2.0000                                         
     5  1  0.50        -3.6940   2.0000                                         
     5  2  1.50        -1.3606   0.0000                                         
     4  3  2.50        -4.0817   0.0000                                         
   Description                                                                  
     l       E           TYP  RCUT    TYP  RCUT                                 
     0    -10.5483727     23  3.000                                             
     0     27.2116520     23  3.000                                             
     1     -3.6939829     23  3.000                                             
     1      1.9821976     23  3.000                                             
     2     -1.3605826     23  3.000                                             
     3     -2.7211652     23  3.000                                             
  local pseudopotential read in
  partial core-charges read in
  partial kinetic energy density read in
  atomic valenz-charges read in
  non local Contribution for L=           0  read in
    real space projection operators read in
  non local Contribution for L=           0  read in
    real space projection operators read in
  non local Contribution for L=           1  read in
    real space projection operators read in
  non local Contribution for L=           1  read in
    real space projection operators read in
  non local Contribution for L=           2  read in
    real space projection operators read in
    PAW grid and wavefunctions read in
 
   number of l-projection  operators is LMAX  =           5
   number of lm-projection operators is LMMAX =          13
 
 POTCAR:    PAW_PBE Se 06Sep2000                  
   VRHFIN =Se: s2p4                                                             
   LEXCH  = PE                                                                  
   EATOM  =   257.1286 eV,   18.8984 Ry                                         
                                                                                
   TITEL  = PAW_PBE Se 06Sep2000                                                
   LULTRA =        F    use ultrasoft PP ?                                      
   IUNSCR =        1    unscreen: 0-lin 1-nonlin 2-no                           
   RPACOR =    1.900    partial core radius                                     
   POMASS =   78.960; ZVAL   =    6.000    mass and valenz                      
   RCORE  =    2.100    outmost cutoff radius                                   
   RWIGS  =    2.200; RWIGS  =    1.164    wigner-seitz radius (au A)           
   ENMAX  =  211.555; ENMIN  =  158.666 eV                                      
   ICORE  =        3    local potential                                         
   LCOR   =        T    correct aug charges                                     
   LPAW   =        T    paw PP                                                  
   EAUG   =  446.842                                                            
   DEXC   =    0.000                                                            
   RMAX   =    2.147    core radius for proj-oper                               
   RAUG   =    1.300    factor for augmentation sphere                          
   RDEP   =    2.177    radius for radial grids                                 
   RDEPT  =    1.928    core radius for aug-charge                              
                                                                                
   Atomic configuration                                                         
   10 entries                                                                   
     n  l   j            E        occ.                                          
     1  0  0.50    -12503.4787   2.0000                                         
     2  0  0.50     -1606.9547   2.0000                                         
     2  1  1.50     -1413.3140   6.0000                                         
     3  0  0.50      -213.4885   2.0000                                         
     3  1  1.50      -152.9538   6.0000                                         
     3  2  2.50       -53.1221  10.0000                                         
     4  0  0.50       -17.2865   2.0000                                         
     4  1  0.50        -6.5110   4.0000                                         
     4  2  2.50        -6.8029   0.0000                                         
     4  3  2.50        -6.8029   0.0000                                         
   Description                                                                  
     l       E           TYP  RCUT    TYP  RCUT                                 
     0    -17.2865377     23  2.100                                             
     0    -15.3094411     23  2.100                                             
     1     -6.5110275     23  2.100                                             
     1     -0.0695192     23  2.100                                             
     2     -6.8029130     23  2.100                                             
     3     -1.3605826      7  2.100                                             
  local pseudopotential read in
  partial core-charges read in
  partial kinetic energy density read in
  atomic valenz-charges read in
  non local Contribution for L=           0  read in
    real space projection operators read in
  non local Contribution for L=           0  read in
    real space projection operators read in
  non local Contribution for L=           1  read in
    real space projection operators read in
  non local Contribution for L=           1  read in
    real space projection operators read in
  non local Contribution for L=           2  read in
    real space projection operators read in
    PAW grid and wavefunctions read in
 
   number of l-projection  operators is LMAX  =           5
   number of lm-projection operators is LMMAX =          13
 
 WARNING: PSMAXN for non-local potential too small
          PSMAXN should be >   12.5490833729506       NTYP=           1
  PAW_PBE Sn 08Apr2002                  :
 energy of atom  1       EATOM=  -94.0860
 kinetic energy error for atom=    0.0000 (will be added to EATOM!!)
  PAW_PBE Se 06Sep2000                  :
 energy of atom  2       EATOM= -257.1286
 kinetic energy error for atom=    0.0006 (will be added to EATOM!!)
 
 
 POSCAR:  POSCAR with strain of 0.010            
  positions in direct lattice
  No initial velocities read in
 exchange correlation table for  LEXCH =        8
   RHO(1)=    0.500       N(1)  =     2000
   RHO(2)=  100.500       N(2)  =     4000
 


--------------------------------------------------------------------------------------------------------


 ion  position               nearest neighbor table
   1  0.581  0.750  0.569-   4 2.72   3 2.93   3 2.93   3 3.24   3 3.24
   2  0.081  0.250  0.431-   3 2.72   4 2.93   4 2.93   4 3.24   4 3.24
   3  0.033  0.250  0.567-   2 2.72   1 2.93   1 2.93   1 3.24   1 3.24
   4  0.533  0.750  0.433-   1 2.72   2 2.93   2 2.93   2 3.24   2 3.24
 

IMPORTANT INFORMATION: All symmetrisations will be switched off!
NOSYMM: (Re-)initialisation of all symmetry stuff for point group C_1.

 
 
 KPOINTS: KMesh Grid                              

Automatic generation of k-mesh.
Space group operators:
 irot       det(A)        alpha          n_x          n_y          n_z        tau_x        tau_y        tau_z
    1     1.000000     0.000000     1.000000     0.000000     0.000000     0.000000     0.000000     0.000000
 
 Subroutine IBZKPT returns following result:
 ===========================================
 
 Found    113 irreducible k-points:
 
 Following reciprocal coordinates:
            Coordinates               Weight
  0.000000  0.000000  0.000000      1.000000
  0.066667  0.000000  0.000000      2.000000
  0.133333  0.000000  0.000000      2.000000
  0.200000  0.000000  0.000000      2.000000
  0.266667  0.000000  0.000000      2.000000
  0.333333  0.000000  0.000000      2.000000
  0.400000  0.000000  0.000000      2.000000
  0.466667  0.000000  0.000000      2.000000
  0.000000  0.066667  0.000000      2.000000
  0.066667  0.066667  0.000000      2.000000
  0.133333  0.066667  0.000000      2.000000
  0.200000  0.066667  0.000000      2.000000
  0.266667  0.066667  0.000000      2.000000
  0.333333  0.066667  0.000000      2.000000
  0.400000  0.066667  0.000000      2.000000
  0.466667  0.066667  0.000000      2.000000
 -0.466667  0.066667  0.000000      2.000000
 -0.400000  0.066667  0.000000      2.000000
 -0.333333  0.066667  0.000000      2.000000
 -0.266667  0.066667  0.000000      2.000000
 -0.200000  0.066667  0.000000      2.000000
 -0.133333  0.066667  0.000000      2.000000
 -0.066667  0.066667  0.000000      2.000000
  0.000000  0.133333  0.000000      2.000000
  0.066667  0.133333  0.000000      2.000000
  0.133333  0.133333  0.000000      2.000000
  0.200000  0.133333  0.000000      2.000000
  0.266667  0.133333  0.000000      2.000000
  0.333333  0.133333  0.000000      2.000000
  0.400000  0.133333  0.000000      2.000000
  0.466667  0.133333  0.000000      2.000000
 -0.466667  0.133333  0.000000      2.000000
 -0.400000  0.133333  0.000000      2.000000
 -0.333333  0.133333  0.000000      2.000000
 -0.266667  0.133333  0.000000      2.000000
 -0.200000  0.133333  0.000000      2.000000
 -0.133333  0.133333  0.000000      2.000000
 -0.066667  0.133333  0.000000      2.000000
  0.000000  0.200000  0.000000      2.000000
  0.066667  0.200000  0.000000      2.000000
  0.133333  0.200000  0.000000      2.000000
  0.200000  0.200000  0.000000      2.000000
  0.266667  0.200000  0.000000      2.000000
  0.333333  0.200000  0.000000      2.000000
  0.400000  0.200000  0.000000      2.000000
  0.466667  0.200000  0.000000      2.000000
 -0.466667  0.200000  0.000000      2.000000
 -0.400000  0.200000  0.000000      2.000000
 -0.333333  0.200000  0.000000      2.000000
 -0.266667  0.200000  0.000000      2.000000
 -0.200000  0.200000  0.000000      2.000000
 -0.133333  0.200000  0.000000      2.000000
 -0.066667  0.200000  0.000000      2.000000
  0.000000  0.266667  0.000000      2.000000
  0.066667  0.266667  0.000000      2.000000
  0.133333  0.266667  0.000000      2.000000
  0.200000  0.266667  0.000000      2.000000
  0.266667  0.266667  0.000000      2.000000
  0.333333  0.266667  0.000000      2.000000
  0.400000  0.266667  0.000000      2.000000
  0.466667  0.266667  0.000000      2.000000
 -0.466667  0.266667  0.000000      2.000000
 -0.400000  0.266667  0.000000      2.000000
 -0.333333  0.266667  0.000000      2.000000
 -0.266667  0.266667  0.000000      2.000000
 -0.200000  0.266667  0.000000      2.000000
 -0.133333  0.266667  0.000000      2.000000
 -0.066667  0.266667  0.000000      2.000000
  0.000000  0.333333  0.000000      2.000000
  0.066667  0.333333  0.000000      2.000000
  0.133333  0.333333  0.000000      2.000000
  0.200000  0.333333  0.000000      2.000000
  0.266667  0.333333  0.000000      2.000000
  0.333333  0.333333  0.000000      2.000000
  0.400000  0.333333  0.000000      2.000000
  0.466667  0.333333  0.000000      2.000000
 -0.466667  0.333333  0.000000      2.000000
 -0.400000  0.333333  0.000000      2.000000
 -0.333333  0.333333  0.000000      2.000000
 -0.266667  0.333333  0.000000      2.000000
 -0.200000  0.333333  0.000000      2.000000
 -0.133333  0.333333  0.000000      2.000000
 -0.066667  0.333333  0.000000      2.000000
  0.000000  0.400000  0.000000      2.000000
  0.066667  0.400000  0.000000      2.000000
  0.133333  0.400000  0.000000      2.000000
  0.200000  0.400000  0.000000      2.000000
  0.266667  0.400000  0.000000      2.000000
  0.333333  0.400000  0.000000      2.000000
  0.400000  0.400000  0.000000      2.000000
  0.466667  0.400000  0.000000      2.000000
 -0.466667  0.400000  0.000000      2.000000
 -0.400000  0.400000  0.000000      2.000000
 -0.333333  0.400000  0.000000      2.000000
 -0.266667  0.400000  0.000000      2.000000
 -0.200000  0.400000  0.000000      2.000000
 -0.133333  0.400000  0.000000      2.000000
 -0.066667  0.400000  0.000000      2.000000
  0.000000  0.466667  0.000000      2.000000
  0.066667  0.466667  0.000000      2.000000
  0.133333  0.466667  0.000000      2.000000
  0.200000  0.466667  0.000000      2.000000
  0.266667  0.466667  0.000000      2.000000
  0.333333  0.466667  0.000000      2.000000
  0.400000  0.466667  0.000000      2.000000
  0.466667  0.466667  0.000000      2.000000
 -0.466667  0.466667  0.000000      2.000000
 -0.400000  0.466667  0.000000      2.000000
 -0.333333  0.466667  0.000000      2.000000
 -0.266667  0.466667  0.000000      2.000000
 -0.200000  0.466667  0.000000      2.000000
 -0.133333  0.466667  0.000000      2.000000
 -0.066667  0.466667  0.000000      2.000000
 
 Following cartesian coordinates:
            Coordinates               Weight
  0.000000  0.000000  0.000000      1.000000
  0.015062  0.000000  0.000000      2.000000
  0.030124  0.000000  0.000000      2.000000
  0.045186  0.000000  0.000000      2.000000
  0.060248  0.000000  0.000000      2.000000
  0.075309  0.000000  0.000000      2.000000
  0.090371  0.000000  0.000000      2.000000
  0.105433  0.000000  0.000000      2.000000
  0.000000  0.015531  0.000000      2.000000
  0.015062  0.015531  0.000000      2.000000
  0.030124  0.015531  0.000000      2.000000
  0.045186  0.015531  0.000000      2.000000
  0.060248  0.015531  0.000000      2.000000
  0.075309  0.015531  0.000000      2.000000
  0.090371  0.015531  0.000000      2.000000
  0.105433  0.015531  0.000000      2.000000
 -0.105433  0.015531  0.000000      2.000000
 -0.090371  0.015531  0.000000      2.000000
 -0.075309  0.015531  0.000000      2.000000
 -0.060248  0.015531  0.000000      2.000000
 -0.045186  0.015531  0.000000      2.000000
 -0.030124  0.015531  0.000000      2.000000
 -0.015062  0.015531  0.000000      2.000000
  0.000000  0.031062  0.000000      2.000000
  0.015062  0.031062  0.000000      2.000000
  0.030124  0.031062  0.000000      2.000000
  0.045186  0.031062  0.000000      2.000000
  0.060248  0.031062  0.000000      2.000000
  0.075309  0.031062  0.000000      2.000000
  0.090371  0.031062  0.000000      2.000000
  0.105433  0.031062  0.000000      2.000000
 -0.105433  0.031062  0.000000      2.000000
 -0.090371  0.031062  0.000000      2.000000
 -0.075309  0.031062  0.000000      2.000000
 -0.060248  0.031062  0.000000      2.000000
 -0.045186  0.031062  0.000000      2.000000
 -0.030124  0.031062  0.000000      2.000000
 -0.015062  0.031062  0.000000      2.000000
  0.000000  0.046593  0.000000      2.000000
  0.015062  0.046593  0.000000      2.000000
  0.030124  0.046593  0.000000      2.000000
  0.045186  0.046593  0.000000      2.000000
  0.060248  0.046593  0.000000      2.000000
  0.075309  0.046593  0.000000      2.000000
  0.090371  0.046593  0.000000      2.000000
  0.105433  0.046593  0.000000      2.000000
 -0.105433  0.046593  0.000000      2.000000
 -0.090371  0.046593  0.000000      2.000000
 -0.075309  0.046593  0.000000      2.000000
 -0.060248  0.046593  0.000000      2.000000
 -0.045186  0.046593  0.000000      2.000000
 -0.030124  0.046593  0.000000      2.000000
 -0.015062  0.046593  0.000000      2.000000
  0.000000  0.062124  0.000000      2.000000
  0.015062  0.062124  0.000000      2.000000
  0.030124  0.062124  0.000000      2.000000
  0.045186  0.062124  0.000000      2.000000
  0.060248  0.062124  0.000000      2.000000
  0.075309  0.062124  0.000000      2.000000
  0.090371  0.062124  0.000000      2.000000
  0.105433  0.062124  0.000000      2.000000
 -0.105433  0.062124  0.000000      2.000000
 -0.090371  0.062124  0.000000      2.000000
 -0.075309  0.062124  0.000000      2.000000
 -0.060248  0.062124  0.000000      2.000000
 -0.045186  0.062124  0.000000      2.000000
 -0.030124  0.062124  0.000000      2.000000
 -0.015062  0.062124  0.000000      2.000000
  0.000000  0.077655  0.000000      2.000000
  0.015062  0.077655  0.000000      2.000000
  0.030124  0.077655  0.000000      2.000000
  0.045186  0.077655  0.000000      2.000000
  0.060248  0.077655  0.000000      2.000000
  0.075309  0.077655  0.000000      2.000000
  0.090371  0.077655  0.000000      2.000000
  0.105433  0.077655  0.000000      2.000000
 -0.105433  0.077655  0.000000      2.000000
 -0.090371  0.077655  0.000000      2.000000
 -0.075309  0.077655  0.000000      2.000000
 -0.060248  0.077655  0.000000      2.000000
 -0.045186  0.077655  0.000000      2.000000
 -0.030124  0.077655  0.000000      2.000000
 -0.015062  0.077655  0.000000      2.000000
  0.000000  0.093186  0.000000      2.000000
  0.015062  0.093186  0.000000      2.000000
  0.030124  0.093186  0.000000      2.000000
  0.045186  0.093186  0.000000      2.000000
  0.060248  0.093186  0.000000      2.000000
  0.075309  0.093186  0.000000      2.000000
  0.090371  0.093186  0.000000      2.000000
  0.105433  0.093186  0.000000      2.000000
 -0.105433  0.093186  0.000000      2.000000
 -0.090371  0.093186  0.000000      2.000000
 -0.075309  0.093186  0.000000      2.000000
 -0.060248  0.093186  0.000000      2.000000
 -0.045186  0.093186  0.000000      2.000000
 -0.030124  0.093186  0.000000      2.000000
 -0.015062  0.093186  0.000000      2.000000
  0.000000  0.108717  0.000000      2.000000
  0.015062  0.108717  0.000000      2.000000
  0.030124  0.108717  0.000000      2.000000
  0.045186  0.108717  0.000000      2.000000
  0.060248  0.108717  0.000000      2.000000
  0.075309  0.108717  0.000000      2.000000
  0.090371  0.108717  0.000000      2.000000
  0.105433  0.108717  0.000000      2.000000
 -0.105433  0.108717  0.000000      2.000000
 -0.090371  0.108717  0.000000      2.000000
 -0.075309  0.108717  0.000000      2.000000
 -0.060248  0.108717  0.000000      2.000000
 -0.045186  0.108717  0.000000      2.000000
 -0.030124  0.108717  0.000000      2.000000
 -0.015062  0.108717  0.000000      2.000000
 


--------------------------------------------------------------------------------------------------------




 Dimension of arrays:
   k-points           NKPTS =    113   k-points in BZ     NKDIM =    113   number of bands    NBANDS=     14
   number of dos      NEDOS =    301   number of ions     NIONS =      4
   non local maximal  LDIM  =      5   non local SUM 2l+1 LMDIM =     13
   total plane-waves  NPLWV = 207360
   max r-space proj   IRMAX =      1   max aug-charges    IRDMAX=  52722
   dimension x,y,z NGX =    36 NGY =   36 NGZ =  160
   dimension x,y,z NGXF=    72 NGYF=   72 NGZF=  320
   support grid    NGXF=    72 NGYF=   72 NGZF=  320
   ions per type =               2   2
   NGX,Y,Z   is equivalent  to a cutoff of  13.52, 13.94, 13.30 a.u.
   NGXF,Y,Z  is equivalent  to a cutoff of  27.04, 27.89, 26.60 a.u.

 SYSTEM =  SnSe                                    
 POSCAR =   POSCAR with strain of 0.010            

 Startparameter for this run:
   NWRITE =      2    write-flag & timer
   PREC   = accura    normal or accurate (medium, high low for compatibility)
   ISTART =      0    job   : 0-new  1-cont  2-samecut
   ICHARG =      2    charge: 1-file 2-atom 10-const
   ISPIN  =      1    spin polarized calculation?
   LNONCOLLINEAR =      F non collinear calculations
   LSORBIT =      F    spin-orbit coupling
   INIWAV =      1    electr: 0-lowe 1-rand  2-diag
   LASPH  =      F    aspherical Exc in radial PAW
   METAGGA=      F    non-selfconsistent MetaGGA calc.

 Electronic Relaxation 1
   ENCUT  =  600.0 eV  44.10 Ry    6.64 a.u.   8.84  8.57 39.94*2*pi/ulx,y,z
   ENINI  =  600.0     initial cutoff
   ENAUG  =  446.8 eV  augmentation charge cutoff
   NELM   =     60;   NELMIN=  2; NELMDL= -5     # of ELM steps 
   EDIFF  = 0.1E-05   stopping-criterion for ELM
   LREAL  =      F    real-space projection
   NLSPLINE    = F    spline interpolate recip. space projectors
   LCOMPAT=      F    compatible to vasp.4.4
   GGA_COMPAT  = T    GGA compatible to vasp.4.4-vasp.4.6
   LMAXPAW     = -100 max onsite density
   LMAXMIX     =    2 max onsite mixed and CHGCAR
   VOSKOWN=      0    Vosko Wilk Nusair interpolation
   ROPT   =    0.00000   0.00000
 Ionic relaxation
   EDIFFG = -.1E-02   stopping-criterion for IOM
   NSW    =    100    number of steps for IOM
   NBLOCK =      1;   KBLOCK =    100    inner block; outer block 
   IBRION =      2    ionic relax: 0-MD 1-quasi-New 2-CG
   NFREE  =      1    steps in history (QN), initial steepest desc. (CG)
   ISIF   =      2    stress and relaxation
   IWAVPR =     11    prediction:  0-non 1-charg 2-wave 3-comb
   ISYM   =      0    0-nonsym 1-usesym 2-fastsym
   LCORR  =      T    Harris-Foulkes like correction to forces

   POTIM  = 0.5000    time-step for ionic-motion
   TEIN   =    0.0    initial temperature
   TEBEG  =    0.0;   TEEND  =   0.0 temperature during run
   SMASS  =  -3.00    Nose mass-parameter (am)
   estimated Nose-frequenzy (Omega)   =  0.10E-29 period in steps =****** mass=  -0.448E-27a.u.
   SCALEE = 1.0000    scale energy and forces
   NPACO  =    256;   APACO  = 16.0  distance and # of slots for P.C.
   PSTRESS=    0.0 pullay stress

  Mass of Ions in am
   POMASS = 118.71 78.96
  Ionic Valenz
   ZVAL   =   4.00  6.00
  Atomic Wigner-Seitz radii
   RWIGS  =  -1.00 -1.00
  virtual crystal weights 
   VCA    =   1.00  1.00
   NELECT =      20.0000    total number of electrons
   NUPDOWN=      -1.0000    fix difference up-down

 DOS related values:
   EMIN   =  10.00;   EMAX   =-10.00  energy-range for DOS
   EFERMI =   0.00
   ISMEAR =     0;   SIGMA  =   0.10  broadening in eV -4-tet -1-fermi 0-gaus

 Electronic relaxation 2 (details)
   IALGO  =     38    algorithm
   LDIAG  =      T    sub-space diagonalisation (order eigenvalues)
   LSUBROT=      F    optimize rotation matrix (better conditioning)
   TURBO    =      0    0=normal 1=particle mesh
   IRESTART =      0    0=no restart 2=restart with 2 vectors
   NREBOOT  =      0    no. of reboots
   NMIN     =      0    reboot dimension
   EREF     =   0.00    reference energy to select bands
   IMIX   =      4    mixing-type and parameters
     AMIX     =   0.40;   BMIX     =  1.00
     AMIX_MAG =   1.60;   BMIX_MAG =  1.00
     AMIN     =   0.10
     WC   =   100.;   INIMIX=   1;  MIXPRE=   1;  MAXMIX= -45

 Intra band minimization:
   WEIMIN = 0.0010     energy-eigenvalue tresh-hold
   EBREAK =  0.18E-07  absolut break condition
   DEPER  =   0.30     relativ break condition  

   TIME   =   0.40     timestep for ELM

  volume/ion in A,a.u.               =      95.00       641.07
  Fermi-wavevector in a.u.,A,eV,Ry     =   0.613521  1.159386  5.121334  0.376407
  Thomas-Fermi vector in A             =   1.670200
 
 Write flags
   LWAVE        =      T    write WAVECAR
   LDOWNSAMPLE  =      F    k-point downsampling of WAVECAR
   LCHARG       =      T    write CHGCAR
   LVTOT        =      F    write LOCPOT, total local potential
   LVHAR        =      F    write LOCPOT, Hartree potential only
   LELF         =      F    write electronic localiz. function (ELF)
   LORBIT       =      0    0 simple, 1 ext, 2 COOP (PROOUT), +10 PAW based schemes


 Dipole corrections
   LMONO  =      F    monopole corrections only (constant potential shift)
   LDIPOL =      F    correct potential (dipole corrections)
   IDIPOL =      0    1-x, 2-y, 3-z, 4-all directions 
   EPSILON=  1.0000000 bulk dielectric constant

 Exchange correlation treatment:
   GGA     =    PE    GGA type
   LEXCH   =     8    internal setting for exchange type
   VOSKOWN=      0    Vosko Wilk Nusair interpolation
   LHFCALC =     F    Hartree Fock is set to
   LHFONE  =     F    Hartree Fock one center treatment
   AEXX    =    0.0000 exact exchange contribution

 Linear response parameters
   LEPSILON=     F    determine dielectric tensor
   LRPA    =     F    only Hartree local field effects (RPA)
   LNABLA  =     F    use nabla operator in PAW spheres
   LVEL    =     F    velocity operator in full k-point grid
   LINTERFAST=   F  fast interpolation
   KINTER  =     0    interpolate to denser k-point grid
   CSHIFT  =0.1000    complex shift for real part using Kramers Kronig
   OMEGAMAX=  -1.0    maximum frequency
   DEG_THRESHOLD= 0.2000000E-02 threshold for treating states as degnerate
   RTIME   =   -0.100 relaxation time in fs
  (WPLASMAI=    0.000 imaginary part of plasma frequency in eV, 0.658/RTIME)
   DFIELD  = 0.0000000 0.0000000 0.0000000 field for delta impulse in time
 
 Orbital magnetization related:
   ORBITALMAG=     F  switch on orbital magnetization
   LCHIMAG   =     F  perturbation theory with respect to B field
   DQ        =  0.001000  dq finite difference perturbation B field
   LLRAUG    =     F  two centre corrections for induced B field



--------------------------------------------------------------------------------------------------------


 conjugate gradient relaxation of ions
 charge density and potential will be updated during run
 non-spin polarized calculation
 Variant of blocked Davidson
 Davidson routine will perform the subspace rotation
 perform sub-space diagonalisation
    after iterative eigenvector-optimisation
 modified Broyden-mixing scheme, WC =      100.0
 initial mixing is a Kerker type mixing with AMIX =  0.4000 and BMIX =      1.0000
 Hartree-type preconditioning will be used
 using additional bands            4
 reciprocal scheme for non local part
 use partial core corrections
 calculate Harris-corrections to forces 
   (improved forces if not selfconsistent)
 use gradient corrections 
 use of overlap-Matrix (Vanderbilt PP)
 Gauss-broadening in eV      SIGMA  =   0.10


--------------------------------------------------------------------------------------------------------


  energy-cutoff  :      600.00
  volume of cell :      379.99
      direct lattice vectors                 reciprocal lattice vectors
     4.426180333  0.000000000  0.000000000     0.225928436  0.000000000  0.000000000
     0.000000000  4.292477857  0.000000000     0.000000000  0.232965675  0.000000000
     0.000000000  0.000000000 20.000000000     0.000000000  0.000000000  0.050000000

  length of vectors
     4.426180333  4.292477857 20.000000000     0.225928436  0.232965675  0.050000000


 
 k-points in units of 2pi/SCALE and weight: KMesh Grid                              
   0.00000000  0.00000000  0.00000000       0.004
   0.01506190  0.00000000  0.00000000       0.009
   0.03012379  0.00000000  0.00000000       0.009
   0.04518569  0.00000000  0.00000000       0.009
   0.06024758  0.00000000  0.00000000       0.009
   0.07530948  0.00000000  0.00000000       0.009
   0.09037137  0.00000000  0.00000000       0.009
   0.10543327  0.00000000  0.00000000       0.009
   0.00000000  0.01553104  0.00000000       0.009
   0.01506190  0.01553104  0.00000000       0.009
   0.03012379  0.01553104  0.00000000       0.009
   0.04518569  0.01553104  0.00000000       0.009
   0.06024758  0.01553104  0.00000000       0.009
   0.07530948  0.01553104  0.00000000       0.009
   0.09037137  0.01553104  0.00000000       0.009
   0.10543327  0.01553104  0.00000000       0.009
  -0.10543327  0.01553104  0.00000000       0.009
  -0.09037137  0.01553104  0.00000000       0.009
  -0.07530948  0.01553104  0.00000000       0.009
  -0.06024758  0.01553104  0.00000000       0.009
  -0.04518569  0.01553104  0.00000000       0.009
  -0.03012379  0.01553104  0.00000000       0.009
  -0.01506190  0.01553104  0.00000000       0.009
   0.00000000  0.03106209  0.00000000       0.009
   0.01506190  0.03106209  0.00000000       0.009
   0.03012379  0.03106209  0.00000000       0.009
   0.04518569  0.03106209  0.00000000       0.009
   0.06024758  0.03106209  0.00000000       0.009
   0.07530948  0.03106209  0.00000000       0.009
   0.09037137  0.03106209  0.00000000       0.009
   0.10543327  0.03106209  0.00000000       0.009
  -0.10543327  0.03106209  0.00000000       0.009
  -0.09037137  0.03106209  0.00000000       0.009
  -0.07530948  0.03106209  0.00000000       0.009
  -0.06024758  0.03106209  0.00000000       0.009
  -0.04518569  0.03106209  0.00000000       0.009
  -0.03012379  0.03106209  0.00000000       0.009
  -0.01506190  0.03106209  0.00000000       0.009
   0.00000000  0.04659313  0.00000000       0.009
   0.01506190  0.04659313  0.00000000       0.009
   0.03012379  0.04659313  0.00000000       0.009
   0.04518569  0.04659313  0.00000000       0.009
   0.06024758  0.04659313  0.00000000       0.009
   0.07530948  0.04659313  0.00000000       0.009
   0.09037137  0.04659313  0.00000000       0.009
   0.10543327  0.04659313  0.00000000       0.009
  -0.10543327  0.04659313  0.00000000       0.009
  -0.09037137  0.04659313  0.00000000       0.009
  -0.07530948  0.04659313  0.00000000       0.009
  -0.06024758  0.04659313  0.00000000       0.009
  -0.04518569  0.04659313  0.00000000       0.009
  -0.03012379  0.04659313  0.00000000       0.009
  -0.01506190  0.04659313  0.00000000       0.009
   0.00000000  0.06212418  0.00000000       0.009
   0.01506190  0.06212418  0.00000000       0.009
   0.03012379  0.06212418  0.00000000       0.009
   0.04518569  0.06212418  0.00000000       0.009
   0.06024758  0.06212418  0.00000000       0.009
   0.07530948  0.06212418  0.00000000       0.009
   0.09037137  0.06212418  0.00000000       0.009
   0.10543327  0.06212418  0.00000000       0.009
  -0.10543327  0.06212418  0.00000000       0.009
  -0.09037137  0.06212418  0.00000000       0.009
  -0.07530948  0.06212418  0.00000000       0.009
  -0.06024758  0.06212418  0.00000000       0.009
  -0.04518569  0.06212418  0.00000000       0.009
  -0.03012379  0.06212418  0.00000000       0.009
  -0.01506190  0.06212418  0.00000000       0.009
   0.00000000  0.07765522  0.00000000       0.009
   0.01506190  0.07765522  0.00000000       0.009
   0.03012379  0.07765522  0.00000000       0.009
   0.04518569  0.07765522  0.00000000       0.009
   0.06024758  0.07765522  0.00000000       0.009
   0.07530948  0.07765522  0.00000000       0.009
   0.09037137  0.07765522  0.00000000       0.009
   0.10543327  0.07765522  0.00000000       0.009
  -0.10543327  0.07765522  0.00000000       0.009
  -0.09037137  0.07765522  0.00000000       0.009
  -0.07530948  0.07765522  0.00000000       0.009
  -0.06024758  0.07765522  0.00000000       0.009
  -0.04518569  0.07765522  0.00000000       0.009
  -0.03012379  0.07765522  0.00000000       0.009
  -0.01506190  0.07765522  0.00000000       0.009
   0.00000000  0.09318627  0.00000000       0.009
   0.01506190  0.09318627  0.00000000       0.009
   0.03012379  0.09318627  0.00000000       0.009
   0.04518569  0.09318627  0.00000000       0.009
   0.06024758  0.09318627  0.00000000       0.009
   0.07530948  0.09318627  0.00000000       0.009
   0.09037137  0.09318627  0.00000000       0.009
   0.10543327  0.09318627  0.00000000       0.009
  -0.10543327  0.09318627  0.00000000       0.009
  -0.09037137  0.09318627  0.00000000       0.009
  -0.07530948  0.09318627  0.00000000       0.009
  -0.06024758  0.09318627  0.00000000       0.009
  -0.04518569  0.09318627  0.00000000       0.009
  -0.03012379  0.09318627  0.00000000       0.009
  -0.01506190  0.09318627  0.00000000       0.009
   0.00000000  0.10871731  0.00000000       0.009
   0.01506190  0.10871731  0.00000000       0.009
   0.03012379  0.10871731  0.00000000       0.009
   0.04518569  0.10871731  0.00000000       0.009
   0.06024758  0.10871731  0.00000000       0.009
   0.07530948  0.10871731  0.00000000       0.009
   0.09037137  0.10871731  0.00000000       0.009
   0.10543327  0.10871731  0.00000000       0.009
  -0.10543327  0.10871731  0.00000000       0.009
  -0.09037137  0.10871731  0.00000000       0.009
  -0.07530948  0.10871731  0.00000000       0.009
  -0.06024758  0.10871731  0.00000000       0.009
  -0.04518569  0.10871731  0.00000000       0.009
  -0.03012379  0.10871731  0.00000000       0.009
  -0.01506190  0.10871731  0.00000000       0.009
 
 k-points in reciprocal lattice and weights: KMesh Grid                              
   0.00000000  0.00000000  0.00000000       0.004
   0.06666667  0.00000000  0.00000000       0.009
   0.13333333  0.00000000  0.00000000       0.009
   0.20000000  0.00000000  0.00000000       0.009
   0.26666667  0.00000000  0.00000000       0.009
   0.33333333  0.00000000  0.00000000       0.009
   0.40000000  0.00000000  0.00000000       0.009
   0.46666667  0.00000000  0.00000000       0.009
   0.00000000  0.06666667  0.00000000       0.009
   0.06666667  0.06666667  0.00000000       0.009
   0.13333333  0.06666667  0.00000000       0.009
   0.20000000  0.06666667  0.00000000       0.009
   0.26666667  0.06666667  0.00000000       0.009
   0.33333333  0.06666667  0.00000000       0.009
   0.40000000  0.06666667  0.00000000       0.009
   0.46666667  0.06666667  0.00000000       0.009
  -0.46666667  0.06666667  0.00000000       0.009
  -0.40000000  0.06666667  0.00000000       0.009
  -0.33333333  0.06666667  0.00000000       0.009
  -0.26666667  0.06666667  0.00000000       0.009
  -0.20000000  0.06666667  0.00000000       0.009
  -0.13333333  0.06666667  0.00000000       0.009
  -0.06666667  0.06666667  0.00000000       0.009
   0.00000000  0.13333333  0.00000000       0.009
   0.06666667  0.13333333  0.00000000       0.009
   0.13333333  0.13333333  0.00000000       0.009
   0.20000000  0.13333333  0.00000000       0.009
   0.26666667  0.13333333  0.00000000       0.009
   0.33333333  0.13333333  0.00000000       0.009
   0.40000000  0.13333333  0.00000000       0.009
   0.46666667  0.13333333  0.00000000       0.009
  -0.46666667  0.13333333  0.00000000       0.009
  -0.40000000  0.13333333  0.00000000       0.009
  -0.33333333  0.13333333  0.00000000       0.009
  -0.26666667  0.13333333  0.00000000       0.009
  -0.20000000  0.13333333  0.00000000       0.009
  -0.13333333  0.13333333  0.00000000       0.009
  -0.06666667  0.13333333  0.00000000       0.009
   0.00000000  0.20000000  0.00000000       0.009
   0.06666667  0.20000000  0.00000000       0.009
   0.13333333  0.20000000  0.00000000       0.009
   0.20000000  0.20000000  0.00000000       0.009
   0.26666667  0.20000000  0.00000000       0.009
   0.33333333  0.20000000  0.00000000       0.009
   0.40000000  0.20000000  0.00000000       0.009
   0.46666667  0.20000000  0.00000000       0.009
  -0.46666667  0.20000000  0.00000000       0.009
  -0.40000000  0.20000000  0.00000000       0.009
  -0.33333333  0.20000000  0.00000000       0.009
  -0.26666667  0.20000000  0.00000000       0.009
  -0.20000000  0.20000000  0.00000000       0.009
  -0.13333333  0.20000000  0.00000000       0.009
  -0.06666667  0.20000000  0.00000000       0.009
   0.00000000  0.26666667  0.00000000       0.009
   0.06666667  0.26666667  0.00000000       0.009
   0.13333333  0.26666667  0.00000000       0.009
   0.20000000  0.26666667  0.00000000       0.009
   0.26666667  0.26666667  0.00000000       0.009
   0.33333333  0.26666667  0.00000000       0.009
   0.40000000  0.26666667  0.00000000       0.009
   0.46666667  0.26666667  0.00000000       0.009
  -0.46666667  0.26666667  0.00000000       0.009
  -0.40000000  0.26666667  0.00000000       0.009
  -0.33333333  0.26666667  0.00000000       0.009
  -0.26666667  0.26666667  0.00000000       0.009
  -0.20000000  0.26666667  0.00000000       0.009
  -0.13333333  0.26666667  0.00000000       0.009
  -0.06666667  0.26666667  0.00000000       0.009
   0.00000000  0.33333333  0.00000000       0.009
   0.06666667  0.33333333  0.00000000       0.009
   0.13333333  0.33333333  0.00000000       0.009
   0.20000000  0.33333333  0.00000000       0.009
   0.26666667  0.33333333  0.00000000       0.009
   0.33333333  0.33333333  0.00000000       0.009
   0.40000000  0.33333333  0.00000000       0.009
   0.46666667  0.33333333  0.00000000       0.009
  -0.46666667  0.33333333  0.00000000       0.009
  -0.40000000  0.33333333  0.00000000       0.009
  -0.33333333  0.33333333  0.00000000       0.009
  -0.26666667  0.33333333  0.00000000       0.009
  -0.20000000  0.33333333  0.00000000       0.009
  -0.13333333  0.33333333  0.00000000       0.009
  -0.06666667  0.33333333  0.00000000       0.009
   0.00000000  0.40000000  0.00000000       0.009
   0.06666667  0.40000000  0.00000000       0.009
   0.13333333  0.40000000  0.00000000       0.009
   0.20000000  0.40000000  0.00000000       0.009
   0.26666667  0.40000000  0.00000000       0.009
   0.33333333  0.40000000  0.00000000       0.009
   0.40000000  0.40000000  0.00000000       0.009
   0.46666667  0.40000000  0.00000000       0.009
  -0.46666667  0.40000000  0.00000000       0.009
  -0.40000000  0.40000000  0.00000000       0.009
  -0.33333333  0.40000000  0.00000000       0.009
  -0.26666667  0.40000000  0.00000000       0.009
  -0.20000000  0.40000000  0.00000000       0.009
  -0.13333333  0.40000000  0.00000000       0.009
  -0.06666667  0.40000000  0.00000000       0.009
   0.00000000  0.46666667  0.00000000       0.009
   0.06666667  0.46666667  0.00000000       0.009
   0.13333333  0.46666667  0.00000000       0.009
   0.20000000  0.46666667  0.00000000       0.009
   0.26666667  0.46666667  0.00000000       0.009
   0.33333333  0.46666667  0.00000000       0.009
   0.40000000  0.46666667  0.00000000       0.009
   0.46666667  0.46666667  0.00000000       0.009
  -0.46666667  0.46666667  0.00000000       0.009
  -0.40000000  0.46666667  0.00000000       0.009
  -0.33333333  0.46666667  0.00000000       0.009
  -0.26666667  0.46666667  0.00000000       0.009
  -0.20000000  0.46666667  0.00000000       0.009
  -0.13333333  0.46666667  0.00000000       0.009
  -0.06666667  0.46666667  0.00000000       0.009
 
 position of ions in fractional coordinates (direct lattice) 
   0.58124336  0.75000000  0.56874314
   0.08124336  0.25000000  0.43125686
   0.03286064  0.25000000  0.56707387
   0.53286061  0.75000000  0.43292613
 
 position of ions in cartesian coordinates  (Angst):
   2.57268792  3.21935839 11.37486283
   0.35959775  1.07311946  8.62513717
   0.14544713  1.07311946 11.34147733
   2.35853717  3.21935839  8.65852267
 


--------------------------------------------------------------------------------------------------------


 k-point  1 :   0.0000 0.0000 0.0000  plane waves:   12719
 k-point  2 :   0.0667 0.0000 0.0000  plane waves:   12717
 k-point  3 :   0.1333 0.0000 0.0000  plane waves:   12701
 k-point  4 :   0.2000 0.0000 0.0000  plane waves:   12676
 k-point  5 :   0.2667 0.0000 0.0000  plane waves:   12694
 k-point  6 :   0.3333 0.0000 0.0000  plane waves:   12688
 k-point  7 :   0.4000 0.0000 0.0000  plane waves:   12696
 k-point  8 :   0.4667 0.0000 0.0000  plane waves:   12716
 k-point  9 :   0.0000 0.0667 0.0000  plane waves:   12695
 k-point 10 :   0.0667 0.0667 0.0000  plane waves:   12691
 k-point 11 :   0.1333 0.0667 0.0000  plane waves:   12696
 k-point 12 :   0.2000 0.0667 0.0000  plane waves:   12693
 k-point 13 :   0.2667 0.0667 0.0000  plane waves:   12693
 k-point 14 :   0.3333 0.0667 0.0000  plane waves:   12704
 k-point 15 :   0.4000 0.0667 0.0000  plane waves:   12695
 k-point 16 :   0.4667 0.0667 0.0000  plane waves:   12720
 k-point 17 :  -0.4667 0.0667 0.0000  plane waves:   12720
 k-point 18 :  -0.4000 0.0667 0.0000  plane waves:   12695
 k-point 19 :  -0.3333 0.0667 0.0000  plane waves:   12704
 k-point 20 :  -0.2667 0.0667 0.0000  plane waves:   12693
 k-point 21 :  -0.2000 0.0667 0.0000  plane waves:   12693
 k-point 22 :  -0.1333 0.0667 0.0000  plane waves:   12696
 k-point 23 :  -0.0667 0.0667 0.0000  plane waves:   12691
 k-point 24 :   0.0000 0.1333 0.0000  plane waves:   12671
 k-point 25 :   0.0667 0.1333 0.0000  plane waves:   12673
 k-point 26 :   0.1333 0.1333 0.0000  plane waves:   12680
 k-point 27 :   0.2000 0.1333 0.0000  plane waves:   12672
 k-point 28 :   0.2667 0.1333 0.0000  plane waves:   12679
 k-point 29 :   0.3333 0.1333 0.0000  plane waves:   12686
 k-point 30 :   0.4000 0.1333 0.0000  plane waves:   12709
 k-point 31 :   0.4667 0.1333 0.0000  plane waves:   12703
 k-point 32 :  -0.4667 0.1333 0.0000  plane waves:   12703
 k-point 33 :  -0.4000 0.1333 0.0000  plane waves:   12709
 k-point 34 :  -0.3333 0.1333 0.0000  plane waves:   12686
 k-point 35 :  -0.2667 0.1333 0.0000  plane waves:   12679
 k-point 36 :  -0.2000 0.1333 0.0000  plane waves:   12672
 k-point 37 :  -0.1333 0.1333 0.0000  plane waves:   12680
 k-point 38 :  -0.0667 0.1333 0.0000  plane waves:   12673
 k-point 39 :   0.0000 0.2000 0.0000  plane waves:   12679
 k-point 40 :   0.0667 0.2000 0.0000  plane waves:   12680
 k-point 41 :   0.1333 0.2000 0.0000  plane waves:   12666
 k-point 42 :   0.2000 0.2000 0.0000  plane waves:   12680
 k-point 43 :   0.2667 0.2000 0.0000  plane waves:   12687
 k-point 44 :   0.3333 0.2000 0.0000  plane waves:   12680
 k-point 45 :   0.4000 0.2000 0.0000  plane waves:   12707
 k-point 46 :   0.4667 0.2000 0.0000  plane waves:   12703
 k-point 47 :  -0.4667 0.2000 0.0000  plane waves:   12703
 k-point 48 :  -0.4000 0.2000 0.0000  plane waves:   12707
 k-point 49 :  -0.3333 0.2000 0.0000  plane waves:   12680
 k-point 50 :  -0.2667 0.2000 0.0000  plane waves:   12687
 k-point 51 :  -0.2000 0.2000 0.0000  plane waves:   12680
 k-point 52 :  -0.1333 0.2000 0.0000  plane waves:   12666
 k-point 53 :  -0.0667 0.2000 0.0000  plane waves:   12680
 k-point 54 :   0.0000 0.2667 0.0000  plane waves:   12671
 k-point 55 :   0.0667 0.2667 0.0000  plane waves:   12660
 k-point 56 :   0.1333 0.2667 0.0000  plane waves:   12670
 k-point 57 :   0.2000 0.2667 0.0000  plane waves:   12680
 k-point 58 :   0.2667 0.2667 0.0000  plane waves:   12681
 k-point 59 :   0.3333 0.2667 0.0000  plane waves:   12687
 k-point 60 :   0.4000 0.2667 0.0000  plane waves:   12691
 k-point 61 :   0.4667 0.2667 0.0000  plane waves:   12708
 k-point 62 :  -0.4667 0.2667 0.0000  plane waves:   12708
 k-point 63 :  -0.4000 0.2667 0.0000  plane waves:   12691
 k-point 64 :  -0.3333 0.2667 0.0000  plane waves:   12687
 k-point 65 :  -0.2667 0.2667 0.0000  plane waves:   12681
 k-point 66 :  -0.2000 0.2667 0.0000  plane waves:   12680
 k-point 67 :  -0.1333 0.2667 0.0000  plane waves:   12670
 k-point 68 :  -0.0667 0.2667 0.0000  plane waves:   12660
 k-point 69 :   0.0000 0.3333 0.0000  plane waves:   12631
 k-point 70 :   0.0667 0.3333 0.0000  plane waves:   12652
 k-point 71 :   0.1333 0.3333 0.0000  plane waves:   12652
 k-point 72 :   0.2000 0.3333 0.0000  plane waves:   12671
 k-point 73 :   0.2667 0.3333 0.0000  plane waves:   12675
 k-point 74 :   0.3333 0.3333 0.0000  plane waves:   12681
 k-point 75 :   0.4000 0.3333 0.0000  plane waves:   12685
 k-point 76 :   0.4667 0.3333 0.0000  plane waves:   12687
 k-point 77 :  -0.4667 0.3333 0.0000  plane waves:   12687
 k-point 78 :  -0.4000 0.3333 0.0000  plane waves:   12685
 k-point 79 :  -0.3333 0.3333 0.0000  plane waves:   12681
 k-point 80 :  -0.2667 0.3333 0.0000  plane waves:   12675
 k-point 81 :  -0.2000 0.3333 0.0000  plane waves:   12671
 k-point 82 :  -0.1333 0.3333 0.0000  plane waves:   12652
 k-point 83 :  -0.0667 0.3333 0.0000  plane waves:   12652
 k-point 84 :   0.0000 0.4000 0.0000  plane waves:   12631
 k-point 85 :   0.0667 0.4000 0.0000  plane waves:   12634
 k-point 86 :   0.1333 0.4000 0.0000  plane waves:   12641
 k-point 87 :   0.2000 0.4000 0.0000  plane waves:   12664
 k-point 88 :   0.2667 0.4000 0.0000  plane waves:   12673
 k-point 89 :   0.3333 0.4000 0.0000  plane waves:   12690
 k-point 90 :   0.4000 0.4000 0.0000  plane waves:   12683
 k-point 91 :   0.4667 0.4000 0.0000  plane waves:   12679
 k-point 92 :  -0.4667 0.4000 0.0000  plane waves:   12679
 k-point 93 :  -0.4000 0.4000 0.0000  plane waves:   12683
 k-point 94 :  -0.3333 0.4000 0.0000  plane waves:   12690
 k-point 95 :  -0.2667 0.4000 0.0000  plane waves:   12673
 k-point 96 :  -0.2000 0.4000 0.0000  plane waves:   12664
 k-point 97 :  -0.1333 0.4000 0.0000  plane waves:   12641
 k-point 98 :  -0.0667 0.4000 0.0000  plane waves:   12634
 k-point 99 :   0.0000 0.4667 0.0000  plane waves:   12646
 k-point ** :   0.0667 0.4667 0.0000  plane waves:   12639
 k-point ** :   0.1333 0.4667 0.0000  plane waves:   12648
 k-point ** :   0.2000 0.4667 0.0000  plane waves:   12665
 k-point ** :   0.2667 0.4667 0.0000  plane waves:   12665
 k-point ** :   0.3333 0.4667 0.0000  plane waves:   12682
 k-point ** :   0.4000 0.4667 0.0000  plane waves:   12672
 k-point ** :   0.4667 0.4667 0.0000  plane waves:   12663
 k-point ** :  -0.4667 0.4667 0.0000  plane waves:   12663
 k-point ** :  -0.4000 0.4667 0.0000  plane waves:   12672
 k-point ** :  -0.3333 0.4667 0.0000  plane waves:   12682
 k-point ** :  -0.2667 0.4667 0.0000  plane waves:   12665
 k-point ** :  -0.2000 0.4667 0.0000  plane waves:   12665
 k-point ** :  -0.1333 0.4667 0.0000  plane waves:   12648
 k-point ** :  -0.0667 0.4667 0.0000  plane waves:   12639

 maximum and minimum number of plane-waves per node :       559      508

 maximum number of plane-waves:     12720
 maximum index in each direction: 
   IXMAX=    9   IYMAX=    8   IZMAX=   39
   IXMIN=   -9   IYMIN=   -9   IZMIN=  -39


 parallel 3D FFT for wavefunctions:
    minimum data exchange during FFTs selected (reduces bandwidth)
 parallel 3D FFT for charge:
    minimum data exchange during FFTs selected (reduces bandwidth)


 total amount of memory used by VASP MPI-rank0    63660. kBytes
=======================================================================

   base      :      30000. kBytes
   nonl-proj :      12679. kBytes
   fftplans  :       2678. kBytes
   grid      :       4349. kBytes
   one-center:          8. kBytes
   wavefun   :      13946. kBytes
 
     INWAV:  cpu time    0.0000: real time    0.0000
 Broyden mixing: mesh for mixing (old mesh)
   NGX = 17   NGY = 17   NGZ = 79
  (NGX  = 72   NGY  = 72   NGZ  =320)
  gives a total of  22831 points

 initial charge density was supplied:
 charge density of overlapping atoms calculated
 number of electron      20.0000000 magnetization 
 keeping initial charge density in first step


--------------------------------------------------------------------------------------------------------


 Maximum index for augmentation-charges         2200 (set IRDMAX)


--------------------------------------------------------------------------------------------------------


 First call to EWALD:  gamma=   0.245
 Maximum number of real-space cells 4x 4x 1
 Maximum number of reciprocal cells 2x 2x 7

    FEWALD:  cpu time    0.0012: real time    0.0083


--------------------------------------- Iteration      1(   1)  ---------------------------------------


    POTLOK:  cpu time    0.4459: real time    0.8287
    SETDIJ:  cpu time    0.0058: real time    0.0082
     EDDAV:  cpu time    2.8341: real time    2.8526
       DOS:  cpu time    0.0055: real time    0.0057
    --------------------------------------------
      LOOP:  cpu time    3.2913: real time    3.6952

 eigenvalue-minimisations  :  3164
 total energy-change (2. order) : 0.1448954E+03  (-0.6312203E+03)
 number of electron      20.0000000 magnetization 
 augmentation part       20.0000000 magnetization 

 Free energy of the ion-electron system (eV)
  ---------------------------------------------------
  alpha Z        PSCENC =         9.41011638
  Ewald energy   TEWEN  =      1136.82591580
  -Hartree energ DENC   =     -1738.51703692
  -exchange      EXHF   =         0.00000000
  -V(xc)+E(xc)   XCENC  =      -238.65527697
  PAW double counting   =       799.43158084     -524.17639913
  entropy T*S    EENTRO =        -0.01464483
  eigenvalues    EBANDS =        -1.83670636
  atomic energy  EATOM  =       702.42789710
  Solvation  Ediel_sol  =         0.00000000
  ---------------------------------------------------
  free energy    TOTEN  =       144.89544591 eV

  energy without entropy =      144.91009074  energy(sigma->0) =      144.90276832


--------------------------------------------------------------------------------------------------------




--------------------------------------- Iteration      1(   2)  ---------------------------------------


     EDDAV:  cpu time    3.9153: real time    3.9248
       DOS:  cpu time    0.0054: real time    0.0054
    --------------------------------------------
      LOOP:  cpu time    3.9207: real time    3.9302

 eigenvalue-minimisations  :  5284
 total energy-change (2. order) :-0.1404491E+03  (-0.1363739E+03)
 number of electron      20.0000000 magnetization 
 augmentation part       20.0000000 magnetization 

 Free energy of the ion-electron system (eV)
  ---------------------------------------------------
  alpha Z        PSCENC =         9.41011638
  Ewald energy   TEWEN  =      1136.82591580
  -Hartree energ DENC   =     -1738.51703692
  -exchange      EXHF   =         0.00000000
  -V(xc)+E(xc)   XCENC  =      -238.65527697
  PAW double counting   =       799.43158084     -524.17639913
  entropy T*S    EENTRO =        -0.00238399
  eigenvalues    EBANDS =      -142.29811233
  atomic energy  EATOM  =       702.42789710
  Solvation  Ediel_sol  =         0.00000000
  ---------------------------------------------------
  free energy    TOTEN  =         4.44630077 eV

  energy without entropy =        4.44868476  energy(sigma->0) =        4.44749277


--------------------------------------------------------------------------------------------------------




--------------------------------------- Iteration      1(   3)  ---------------------------------------


     EDDAV:  cpu time    3.1410: real time    3.1487
       DOS:  cpu time    0.0036: real time    0.0037
    --------------------------------------------
      LOOP:  cpu time    3.1446: real time    3.1524

 eigenvalue-minimisations  :  4058
 total energy-change (2. order) :-0.2044693E+02  (-0.2022911E+02)
 number of electron      20.0000000 magnetization 
 augmentation part       20.0000000 magnetization 

 Free energy of the ion-electron system (eV)
  ---------------------------------------------------
  alpha Z        PSCENC =         9.41011638
  Ewald energy   TEWEN  =      1136.82591580
  -Hartree energ DENC   =     -1738.51703692
  -exchange      EXHF   =         0.00000000
  -V(xc)+E(xc)   XCENC  =      -238.65527697
  PAW double counting   =       799.43158084     -524.17639913
  entropy T*S    EENTRO =        -0.00000000
  eigenvalues    EBANDS =      -162.74743104
  atomic energy  EATOM  =       702.42789710
  Solvation  Ediel_sol  =         0.00000000
  ---------------------------------------------------
  free energy    TOTEN  =       -16.00063395 eV

  energy without entropy =      -16.00063395  energy(sigma->0) =      -16.00063395


--------------------------------------------------------------------------------------------------------




--------------------------------------- Iteration      1(   4)  ---------------------------------------


     EDDAV:  cpu time    3.3292: real time    3.3378
       DOS:  cpu time    0.0038: real time    0.0038
    --------------------------------------------
      LOOP:  cpu time    3.3331: real time    3.3416

 eigenvalue-minimisations  :  4450
 total energy-change (2. order) :-0.7859470E+00  (-0.7838246E+00)
 number of electron      20.0000000 magnetization 
 augmentation part       20.0000000 magnetization 

 Free energy of the ion-electron system (eV)
  ---------------------------------------------------
  alpha Z        PSCENC =         9.41011638
  Ewald energy   TEWEN  =      1136.82591580
  -Hartree energ DENC   =     -1738.51703692
  -exchange      EXHF   =         0.00000000
  -V(xc)+E(xc)   XCENC  =      -238.65527697
  PAW double counting   =       799.43158084     -524.17639913
  entropy T*S    EENTRO =        -0.00000000
  eigenvalues    EBANDS =      -163.53337799
  atomic energy  EATOM  =       702.42789710
  Solvation  Ediel_sol  =         0.00000000
  ---------------------------------------------------
  free energy    TOTEN  =       -16.78658090 eV

  energy without entropy =      -16.78658090  energy(sigma->0) =      -16.78658090


--------------------------------------------------------------------------------------------------------




--------------------------------------- Iteration      1(   5)  ---------------------------------------


     EDDAV:  cpu time    3.2953: real time    3.3038
       DOS:  cpu time    0.0036: real time    0.0035
    CHARGE:  cpu time    0.2035: real time    0.2049
    MIXING:  cpu time    0.0054: real time    0.0059
    --------------------------------------------
      LOOP:  cpu time    3.5078: real time    3.5181

 eigenvalue-minimisations  :  4294
 total energy-change (2. order) :-0.1761796E-01  (-0.1759262E-01)
 number of electron      20.0000001 magnetization 
 augmentation part       -4.5204578 magnetization 

 Broyden mixing:
  rms(total) = 0.44699E+00    rms(broyden)= 0.44699E+00
  rms(prec ) = 0.48897E+00
  weight for this iteration     100.00

 Free energy of the ion-electron system (eV)
  ---------------------------------------------------
  alpha Z        PSCENC =         9.41011638
  Ewald energy   TEWEN  =      1136.82591580
  -Hartree energ DENC   =     -1738.51703692
  -exchange      EXHF   =         0.00000000
  -V(xc)+E(xc)   XCENC  =      -238.65527697
  PAW double counting   =       799.43158084     -524.17639913
  entropy T*S    EENTRO =        -0.00000000
  eigenvalues    EBANDS =      -163.55099596
  atomic energy  EATOM  =       702.42789710
  Solvation  Ediel_sol  =         0.00000000
  ---------------------------------------------------
  free energy    TOTEN  =       -16.80419886 eV

  energy without entropy =      -16.80419886  energy(sigma->0) =      -16.80419886


--------------------------------------------------------------------------------------------------------




--------------------------------------- Iteration      1(   6)  ---------------------------------------


    POTLOK:  cpu time    0.0398: real time    0.0400
    SETDIJ:  cpu time    0.0034: real time    0.0039
     EDDAV:  cpu time    2.7979: real time    2.8057
       DOS:  cpu time    0.0038: real time    0.0038
    CHARGE:  cpu time    0.4907: real time    0.4915
    MIXING:  cpu time    0.0038: real time    0.0040
    --------------------------------------------
      LOOP:  cpu time    3.3394: real time    3.3488

 eigenvalue-minimisations  :  3892
 total energy-change (2. order) : 0.5030930E+00  (-0.1304935E+00)
 number of electron      20.0000001 magnetization 
 augmentation part       -4.4873312 magnetization 

 Broyden mixing:
  rms(total) = 0.27349E+00    rms(broyden)= 0.27349E+00
  rms(prec ) = 0.28270E+00
  weight for this iteration     100.00

 eigenvalues of (default mixing * dielectric matrix)
  average eigenvalue GAMMA=   1.7585
  1.7585

 Free energy of the ion-electron system (eV)
  ---------------------------------------------------
  alpha Z        PSCENC =         9.41011638
  Ewald energy   TEWEN  =      1136.82591580
  -Hartree energ DENC   =     -1746.44158654
  -exchange      EXHF   =         0.00000000
  -V(xc)+E(xc)   XCENC  =      -238.16906930
  PAW double counting   =       921.73932873     -646.66087879
  entropy T*S    EENTRO =        -0.00000000
  eigenvalues    EBANDS =      -155.43282920
  atomic energy  EATOM  =       702.42789710
  Solvation  Ediel_sol  =         0.00000000
  ---------------------------------------------------
  free energy    TOTEN  =       -16.30110583 eV

  energy without entropy =      -16.30110583  energy(sigma->0) =      -16.30110583


--------------------------------------------------------------------------------------------------------




--------------------------------------- Iteration      1(   7)  ---------------------------------------


    POTLOK:  cpu time    0.0391: real time    0.0392
    SETDIJ:  cpu time    0.0033: real time    0.0033
     EDDAV:  cpu time    2.9148: real time    2.9228
       DOS:  cpu time    0.0037: real time    0.0037
    CHARGE:  cpu time    3.5085: real time    3.5143
    MIXING:  cpu time    0.0015: real time    0.0019
    --------------------------------------------
      LOOP:  cpu time    6.4709: real time    6.4853

 eigenvalue-minimisations  :  4138
 total energy-change (2. order) : 0.2610650E-01  (-0.3059033E-01)
 number of electron      20.0000001 magnetization 
 augmentation part       -4.4800883 magnetization 

 Broyden mixing:
  rms(total) = 0.10659E+00    rms(broyden)= 0.10659E+00
  rms(prec ) = 0.11193E+00
  weight for this iteration     100.00

 eigenvalues of (default mixing * dielectric matrix)
  average eigenvalue GAMMA=   1.7240
  1.3602  2.0877

 Free energy of the ion-electron system (eV)
  ---------------------------------------------------
  alpha Z        PSCENC =         9.41011638
  Ewald energy   TEWEN  =      1136.82591580
  -Hartree energ DENC   =     -1751.27497628
  -exchange      EXHF   =         0.00000000
  -V(xc)+E(xc)   XCENC  =      -237.85491563
  PAW double counting   =      1056.98688515     -782.03793052
  entropy T*S    EENTRO =        -0.00000000
  eigenvalues    EBANDS =      -150.75799134
  atomic energy  EATOM  =       702.42789710
  Solvation  Ediel_sol  =         0.00000000
  ---------------------------------------------------
  free energy    TOTEN  =       -16.27499933 eV

  energy without entropy =      -16.27499933  energy(sigma->0) =      -16.27499933


--------------------------------------------------------------------------------------------------------




--------------------------------------- Iteration      1(   8)  ---------------------------------------


    POTLOK:  cpu time    0.0432: real time    0.0433
    SETDIJ:  cpu time    0.0034: real time    0.0035
     EDDAV:  cpu time    3.0395: real time    3.0477
       DOS:  cpu time    0.0037: real time    0.0037
    CHARGE:  cpu time    0.1966: real time    0.1970
    MIXING:  cpu time    0.0012: real time    0.0012
    --------------------------------------------
      LOOP:  cpu time    3.2877: real time    3.2965

 eigenvalue-minimisations  :  4484
 total energy-change (2. order) : 0.9254195E-02  (-0.3654225E-02)
 number of electron      20.0000001 magnetization 
 augmentation part       -4.4843008 magnetization 

 Broyden mixing:
  rms(total) = 0.20214E-01    rms(broyden)= 0.20214E-01
  rms(prec ) = 0.27665E-01
  weight for this iteration     100.00

 eigenvalues of (default mixing * dielectric matrix)
  average eigenvalue GAMMA=   1.6889
  2.5085  1.2791  1.2791

 Free energy of the ion-electron system (eV)
  ---------------------------------------------------
  alpha Z        PSCENC =         9.41011638
  Ewald energy   TEWEN  =      1136.82591580
  -Hartree energ DENC   =     -1753.01905867
  -exchange      EXHF   =         0.00000000
  -V(xc)+E(xc)   XCENC  =      -237.77175319
  PAW double counting   =      1124.02255167     -849.11199603
  entropy T*S    EENTRO =        -0.00000000
  eigenvalues    EBANDS =      -149.04941819
  atomic energy  EATOM  =       702.42789710
  Solvation  Ediel_sol  =         0.00000000
  ---------------------------------------------------
  free energy    TOTEN  =       -16.26574513 eV

  energy without entropy =      -16.26574513  energy(sigma->0) =      -16.26574513


--------------------------------------------------------------------------------------------------------




--------------------------------------- Iteration      1(   9)  ---------------------------------------


    POTLOK:  cpu time    0.0394: real time    0.0396
    SETDIJ:  cpu time    0.0034: real time    0.0034
     EDDAV:  cpu time    4.4518: real time    4.4621
       DOS:  cpu time    0.0038: real time    0.0038
    CHARGE:  cpu time    0.1965: real time    0.1968
    MIXING:  cpu time    0.0015: real time    0.0015
    --------------------------------------------
      LOOP:  cpu time    4.6963: real time    4.7071

 eigenvalue-minimisations  :  4334
 total energy-change (2. order) : 0.3636746E-02  (-0.6408435E-03)
 number of electron      20.0000001 magnetization 
 augmentation part       -4.4825144 magnetization 

 Broyden mixing:
  rms(total) = 0.99673E-02    rms(broyden)= 0.99673E-02
  rms(prec ) = 0.15600E-01
  weight for this iteration     100.00

 eigenvalues of (default mixing * dielectric matrix)
  average eigenvalue GAMMA=   1.7157
  2.2455  2.2455  1.1858  1.1858

 Free energy of the ion-electron system (eV)
  ---------------------------------------------------
  alpha Z        PSCENC =         9.41011638
  Ewald energy   TEWEN  =      1136.82591580
  -Hartree energ DENC   =     -1754.93795521
  -exchange      EXHF   =         0.00000000
  -V(xc)+E(xc)   XCENC  =      -237.70035664
  PAW double counting   =      1141.20882693     -866.30934594
  entropy T*S    EENTRO =        -0.00000000
  eigenvalues    EBANDS =      -147.18720681
  atomic energy  EATOM  =       702.42789710
  Solvation  Ediel_sol  =         0.00000000
  ---------------------------------------------------
  free energy    TOTEN  =       -16.26210839 eV

  energy without entropy =      -16.26210839  energy(sigma->0) =      -16.26210839


--------------------------------------------------------------------------------------------------------




--------------------------------------- Iteration      1(  10)  ---------------------------------------


    POTLOK:  cpu time    0.0392: real time    0.0397
    SETDIJ:  cpu time    0.0033: real time    0.0034
     EDDAV:  cpu time    3.4505: real time    3.4592
       DOS:  cpu time    0.0037: real time    0.0037
    CHARGE:  cpu time    0.1950: real time    0.1954
    MIXING:  cpu time    0.0013: real time    0.0013
    --------------------------------------------
      LOOP:  cpu time    3.6928: real time    3.7026

 eigenvalue-minimisations  :  4358
 total energy-change (2. order) : 0.1344803E-02  (-0.1266367E-03)
 number of electron      20.0000001 magnetization 
 augmentation part       -4.4812085 magnetization 

 Broyden mixing:
  rms(total) = 0.49746E-02    rms(broyden)= 0.49746E-02
  rms(prec ) = 0.92346E-02
  weight for this iteration     100.00

 eigenvalues of (default mixing * dielectric matrix)
  average eigenvalue GAMMA=   1.8489
  3.2994  2.5891  1.2243  1.2243  0.9072

 Free energy of the ion-electron system (eV)
  ---------------------------------------------------
  alpha Z        PSCENC =         9.41011638
  Ewald energy   TEWEN  =      1136.82591580
  -Hartree energ DENC   =     -1756.24818352
  -exchange      EXHF   =         0.00000000
  -V(xc)+E(xc)   XCENC  =      -237.68746884
  PAW double counting   =      1131.33052205     -856.42149962
  entropy T*S    EENTRO =        -0.00000000
  eigenvalues    EBANDS =      -145.89806294
  atomic energy  EATOM  =       702.42789710
  Solvation  Ediel_sol  =         0.00000000
  ---------------------------------------------------
  free energy    TOTEN  =       -16.26076359 eV

  energy without entropy =      -16.26076359  energy(sigma->0) =      -16.26076359


--------------------------------------------------------------------------------------------------------




--------------------------------------- Iteration      1(  11)  ---------------------------------------


    POTLOK:  cpu time    0.0394: real time    0.0399
    SETDIJ:  cpu time    0.0033: real time    0.0033
     EDDAV:  cpu time    3.1256: real time    3.1335
       DOS:  cpu time    0.0037: real time    0.0037
    CHARGE:  cpu time    0.1978: real time    0.1983
    MIXING:  cpu time    0.0013: real time    0.0013
    --------------------------------------------
      LOOP:  cpu time    3.3712: real time    3.3800

 eigenvalue-minimisations  :  4322
 total energy-change (2. order) : 0.7153393E-03  (-0.1177028E-03)
 number of electron      20.0000001 magnetization 
 augmentation part       -4.4798851 magnetization 

 Broyden mixing:
  rms(total) = 0.31585E-02    rms(broyden)= 0.31585E-02
  rms(prec ) = 0.49596E-02
  weight for this iteration     100.00

 eigenvalues of (default mixing * dielectric matrix)
  average eigenvalue GAMMA=   1.8251
  3.3879  2.3999  1.9037  1.1831  1.1831  0.8931

 Free energy of the ion-electron system (eV)
  ---------------------------------------------------
  alpha Z        PSCENC =         9.41011638
  Ewald energy   TEWEN  =      1136.82591580
  -Hartree energ DENC   =     -1757.78837778
  -exchange      EXHF   =         0.00000000
  -V(xc)+E(xc)   XCENC  =      -237.65697061
  PAW double counting   =      1132.74874865     -857.83871010
  entropy T*S    EENTRO =        -0.00000000
  eigenvalues    EBANDS =      -144.38866769
  atomic energy  EATOM  =       702.42789710
  Solvation  Ediel_sol  =         0.00000000
  ---------------------------------------------------
  free energy    TOTEN  =       -16.26004825 eV

  energy without entropy =      -16.26004825  energy(sigma->0) =      -16.26004825


--------------------------------------------------------------------------------------------------------




--------------------------------------- Iteration      1(  12)  ---------------------------------------


    POTLOK:  cpu time    0.0401: real time    0.0406
    SETDIJ:  cpu time    0.0034: real time    0.0034
     EDDAV:  cpu time    3.8926: real time    3.9011
       DOS:  cpu time    0.0037: real time    0.0037
    CHARGE:  cpu time    0.1978: real time    0.1982
    MIXING:  cpu time    0.0016: real time    0.0016
    --------------------------------------------
      LOOP:  cpu time    4.1391: real time    4.1486

 eigenvalue-minimisations  :  3560
 total energy-change (2. order) :-0.8074005E-03  (-0.2675186E-04)
 number of electron      20.0000001 magnetization 
 augmentation part       -4.4792470 magnetization 

 Broyden mixing:
  rms(total) = 0.16447E-02    rms(broyden)= 0.16447E-02
  rms(prec ) = 0.26684E-02
  weight for this iteration     100.00

 eigenvalues of (default mixing * dielectric matrix)
  average eigenvalue GAMMA=   2.0597
  4.6057  3.0506  2.4990  1.1933  1.1933  1.0240  0.8521

 Free energy of the ion-electron system (eV)
  ---------------------------------------------------
  alpha Z        PSCENC =         9.41011638
  Ewald energy   TEWEN  =      1136.82591580
  -Hartree energ DENC   =     -1758.44811953
  -exchange      EXHF   =         0.00000000
  -V(xc)+E(xc)   XCENC  =      -237.64746199
  PAW double counting   =      1134.16895001     -859.26106794
  entropy T*S    EENTRO =        -0.00000000
  eigenvalues    EBANDS =      -143.73708547
  atomic energy  EATOM  =       702.42789710
  Solvation  Ediel_sol  =         0.00000000
  ---------------------------------------------------
  free energy    TOTEN  =       -16.26085565 eV

  energy without entropy =      -16.26085565  energy(sigma->0) =      -16.26085565


--------------------------------------------------------------------------------------------------------




--------------------------------------- Iteration      1(  13)  ---------------------------------------


    POTLOK:  cpu time    0.0399: real time    0.0405
    SETDIJ:  cpu time    0.0034: real time    0.0034
     EDDAV:  cpu time    2.7768: real time    2.7847
       DOS:  cpu time    0.0038: real time    0.0038
    CHARGE:  cpu time    0.1952: real time    0.1956
    MIXING:  cpu time    0.0015: real time    0.0015
    --------------------------------------------
      LOOP:  cpu time    3.0206: real time    3.0294

 eigenvalue-minimisations  :  3728
 total energy-change (2. order) :-0.4340413E-03  (-0.7398251E-05)
 number of electron      20.0000001 magnetization 
 augmentation part       -4.4790369 magnetization 

 Broyden mixing:
  rms(total) = 0.10587E-02    rms(broyden)= 0.10587E-02
  rms(prec ) = 0.14541E-02
  weight for this iteration     100.00

 eigenvalues of (default mixing * dielectric matrix)
  average eigenvalue GAMMA=   2.2421
  5.7080  3.2720  2.4933  2.1762  1.1531  1.1531  1.0680  0.9132

 Free energy of the ion-electron system (eV)
  ---------------------------------------------------
  alpha Z        PSCENC =         9.41011638
  Ewald energy   TEWEN  =      1136.82591580
  -Hartree energ DENC   =     -1758.85864554
  -exchange      EXHF   =         0.00000000
  -V(xc)+E(xc)   XCENC  =      -237.64573930
  PAW double counting   =      1133.26493645     -858.35610144
  entropy T*S    EENTRO =        -0.00000000
  eigenvalues    EBANDS =      -143.32966914
  atomic energy  EATOM  =       702.42789710
  Solvation  Ediel_sol  =         0.00000000
  ---------------------------------------------------
  free energy    TOTEN  =       -16.26128969 eV

  energy without entropy =      -16.26128969  energy(sigma->0) =      -16.26128969


--------------------------------------------------------------------------------------------------------




--------------------------------------- Iteration      1(  14)  ---------------------------------------


    POTLOK:  cpu time    0.0408: real time    0.0414
    SETDIJ:  cpu time    0.0033: real time    0.0033
     EDDAV:  cpu time    3.0510: real time    3.0592
       DOS:  cpu time    0.0038: real time    0.0038
    CHARGE:  cpu time    0.1949: real time    0.1953
    MIXING:  cpu time    0.0020: real time    0.0020
    --------------------------------------------
      LOOP:  cpu time    3.2958: real time    3.3050

 eigenvalue-minimisations  :  3878
 total energy-change (2. order) :-0.2702076E-03  (-0.4015626E-05)
 number of electron      20.0000001 magnetization 
 augmentation part       -4.4790050 magnetization 

 Broyden mixing:
  rms(total) = 0.38209E-03    rms(broyden)= 0.38209E-03
  rms(prec ) = 0.60544E-03
  weight for this iteration     100.00

 eigenvalues of (default mixing * dielectric matrix)
  average eigenvalue GAMMA=   2.2477
  6.7562  3.0768  2.5312  2.5312  1.1733  1.1733  1.0177  1.0177  0.9521

 Free energy of the ion-electron system (eV)
  ---------------------------------------------------
  alpha Z        PSCENC =         9.41011638
  Ewald energy   TEWEN  =      1136.82591580
  -Hartree energ DENC   =     -1759.06711950
  -exchange      EXHF   =         0.00000000
  -V(xc)+E(xc)   XCENC  =      -237.64565486
  PAW double counting   =      1133.47286106     -858.56352432
  entropy T*S    EENTRO =        -0.00000000
  eigenvalues    EBANDS =      -143.12205156
  atomic energy  EATOM  =       702.42789710
  Solvation  Ediel_sol  =         0.00000000
  ---------------------------------------------------
  free energy    TOTEN  =       -16.26155990 eV

  energy without entropy =      -16.26155990  energy(sigma->0) =      -16.26155990


--------------------------------------------------------------------------------------------------------




--------------------------------------- Iteration      1(  15)  ---------------------------------------


    POTLOK:  cpu time    0.0537: real time    0.0543
    SETDIJ:  cpu time    0.0033: real time    0.0034
     EDDAV:  cpu time    4.3440: real time    4.3527
       DOS:  cpu time    0.0038: real time    0.0038
    CHARGE:  cpu time    0.1943: real time    0.1947
    MIXING:  cpu time    0.0016: real time    0.0015
    --------------------------------------------
      LOOP:  cpu time    4.6006: real time    4.6104

 eigenvalue-minimisations  :  3856
 total energy-change (2. order) :-0.5874015E-04  (-0.1965198E-06)
 number of electron      20.0000001 magnetization 
 augmentation part       -4.4790202 magnetization 

 Broyden mixing:
  rms(total) = 0.29928E-03    rms(broyden)= 0.29928E-03
  rms(prec ) = 0.47831E-03
  weight for this iteration     100.00

 eigenvalues of (default mixing * dielectric matrix)
  average eigenvalue GAMMA=   2.3587
  6.5573  4.2909  2.6960  2.6960  1.9884  1.1390  1.1390  1.2037  0.9384  0.9384

 Free energy of the ion-electron system (eV)
  ---------------------------------------------------
  alpha Z        PSCENC =         9.41011638
  Ewald energy   TEWEN  =      1136.82591580
  -Hartree energ DENC   =     -1759.08237034
  -exchange      EXHF   =         0.00000000
  -V(xc)+E(xc)   XCENC  =      -237.64602291
  PAW double counting   =      1133.27958248     -858.37011313
  entropy T*S    EENTRO =        -0.00000000
  eigenvalues    EBANDS =      -143.10662402
  atomic energy  EATOM  =       702.42789710
  Solvation  Ediel_sol  =         0.00000000
  ---------------------------------------------------
  free energy    TOTEN  =       -16.26161864 eV

  energy without entropy =      -16.26161864  energy(sigma->0) =      -16.26161864


--------------------------------------------------------------------------------------------------------




--------------------------------------- Iteration      1(  16)  ---------------------------------------


    POTLOK:  cpu time    0.0397: real time    0.0403
    SETDIJ:  cpu time    0.0033: real time    0.0033
     EDDAV:  cpu time    3.7312: real time    3.7395
       DOS:  cpu time    0.0038: real time    0.0038
    CHARGE:  cpu time    0.1931: real time    0.1934
    MIXING:  cpu time    0.0017: real time    0.0017
    --------------------------------------------
      LOOP:  cpu time    3.9728: real time    3.9820

 eigenvalue-minimisations  :  3522
 total energy-change (2. order) :-0.4391469E-04  (-0.8234350E-06)
 number of electron      20.0000001 magnetization 
 augmentation part       -4.4790340 magnetization 

 Broyden mixing:
  rms(total) = 0.11736E-03    rms(broyden)= 0.11736E-03
  rms(prec ) = 0.21897E-03
  weight for this iteration     100.00

 eigenvalues of (default mixing * dielectric matrix)
  average eigenvalue GAMMA=   2.2811
  6.8043  4.5100  2.6553  2.6553  2.2379  1.1492  1.1492  1.1985  0.9396  0.9396
  0.8534

 Free energy of the ion-electron system (eV)
  ---------------------------------------------------
  alpha Z        PSCENC =         9.41011638
  Ewald energy   TEWEN  =      1136.82591580
  -Hartree energ DENC   =     -1759.13423651
  -exchange      EXHF   =         0.00000000
  -V(xc)+E(xc)   XCENC  =      -237.64608164
  PAW double counting   =      1133.16640304     -858.25694676
  entropy T*S    EENTRO =        -0.00000000
  eigenvalues    EBANDS =      -143.05472996
  atomic energy  EATOM  =       702.42789710
  Solvation  Ediel_sol  =         0.00000000
  ---------------------------------------------------
  free energy    TOTEN  =       -16.26166255 eV

  energy without entropy =      -16.26166255  energy(sigma->0) =      -16.26166255


--------------------------------------------------------------------------------------------------------




--------------------------------------- Iteration      1(  17)  ---------------------------------------


    POTLOK:  cpu time    0.0394: real time    0.0399
    SETDIJ:  cpu time    0.0033: real time    0.0034
     EDDAV:  cpu time    2.3432: real time    2.3498
       DOS:  cpu time    0.0037: real time    0.0037
    CHARGE:  cpu time    0.1955: real time    0.1960
    MIXING:  cpu time    0.0017: real time    0.0017
    --------------------------------------------
[...]
      3      -8.6955      2.00000
      4      -8.5436      2.00000
      5      -6.3654      2.00000
      6      -5.5174      2.00000
      7      -5.0876      2.00000
      8      -4.3871      2.00000
      9      -3.9487      2.00000
     10      -3.3777      2.00000
     11       0.4665      0.00000
     12       1.2823      0.00000
     13       1.4911      0.00000
     14       2.1177      0.00000

 k-point    95 :      -0.2667    0.4000    0.0000
  band No.  band energies     occupation 
      1     -14.5847      2.00000
      2     -14.3353      2.00000
      3      -8.8623      2.00000
      4      -8.6372      2.00000
      5      -6.0683      2.00000
      6      -5.1325      2.00000
      7      -4.8676      2.00000
      8      -4.1385      2.00000
      9      -3.8591      2.00000
     10      -3.1072      2.00000
     11       0.0593      0.00000
     12       1.0186      0.00000
     13       1.0927      0.00000
     14       1.5127      0.00000

 k-point    96 :      -0.2000    0.4000    0.0000
  band No.  band energies     occupation 
      1     -14.6501      2.00000
      2     -14.3544      2.00000
      3      -9.0155      2.00000
      4      -8.7305      2.00000
      5      -5.6532      2.00000
      6      -4.8676      2.00000
      7      -4.5867      2.00000
      8      -4.0026      2.00000
      9      -3.5250      2.00000
     10      -2.7655      2.00000
     11      -0.4051      0.00000
     12       0.4703      0.00000
     13       0.6834      0.00000
     14       1.1818      0.00000

 k-point    97 :      -0.1333    0.4000    0.0000
  band No.  band energies     occupation 
      1     -14.7025      2.00000
      2     -14.3740      2.00000
      3      -9.1351      2.00000
      4      -8.8078      2.00000
      5      -5.1597      2.00000
      6      -4.8015      2.00000
      7      -4.1891      2.00000
      8      -3.9564      2.00000
      9      -3.0030      2.00000
     10      -2.5729      2.00000
     11      -0.6596      0.00000
     12      -0.2366      0.00000
     13       0.4781      0.00000
     14       0.7339      0.00000

 k-point    98 :      -0.0667    0.4000    0.0000
  band No.  band energies     occupation 
      1     -14.7362      2.00000
      2     -14.3883      2.00000
      3      -9.2102      2.00000
      4      -8.8584      2.00000
      5      -4.7996      2.00000
      6      -4.6492      2.00000
      7      -3.9867      2.00000
      8      -3.8062      2.00000
      9      -2.7331      2.00000
     10      -2.4719      2.00000
     11      -0.8073      0.00000
     12      -0.4223      0.00000
     13       0.1914      0.00000
     14       0.3660      0.00000

 k-point    99 :       0.0000    0.4667    0.0000
  band No.  band energies     occupation 
      1     -14.6055      2.00000
      2     -14.4837      2.00000
      3      -9.2177      2.00000
      4      -9.0941      2.00000
      5      -4.5665      2.00000
      6      -4.3642      2.00000
      7      -3.9271      2.00000
      8      -3.7428      2.00000
      9      -2.6535      2.00000
     10      -2.3403      2.00000
     11      -0.9430      0.00000
     12      -0.5271      0.00000
     13      -0.0855      0.00000
     14       0.1097      0.00000

 k-point   100 :       0.0667    0.4667    0.0000
  band No.  band energies     occupation 
      1     -14.5961      2.00000
      2     -14.4764      2.00000
      3      -9.1914      2.00000
      4      -9.0706      2.00000
      5      -4.5842      2.00000
      6      -4.4867      2.00000
      7      -4.0513      2.00000
      8      -3.9353      2.00000
      9      -2.5789      2.00000
     10      -2.4834      2.00000
     11      -0.8466      0.00000
     12      -0.7305      0.00000
     13       0.2496      0.00000
     14       0.5508      0.00000

 k-point   101 :       0.1333    0.4667    0.0000
  band No.  band energies     occupation 
      1     -14.5689      2.00000
      2     -14.4560      2.00000
      3      -9.1138      2.00000
      4      -9.0015      2.00000
      5      -4.8890      2.00000
      6      -4.7034      2.00000
      7      -4.2769      2.00000
      8      -4.1548      2.00000
      9      -2.9099      2.00000
     10      -2.7143      2.00000
     11      -0.6030      0.00000
     12      -0.3869      0.00000
     13       0.7758      0.00000
     14       0.8443      0.00000

 k-point   102 :       0.2000    0.4667    0.0000
  band No.  band energies     occupation 
      1     -14.5275      2.00000
      2     -14.4259      2.00000
      3      -8.9889      2.00000
      4      -8.8913      2.00000
      5      -5.3795      2.00000
      6      -5.0625      2.00000
      7      -4.4688      2.00000
      8      -4.2374      2.00000
      9      -3.3834      2.00000
     10      -3.0958      2.00000
     11      -0.1002      0.00000
     12       0.2476      0.00000
     13       0.9800      0.00000
     14       1.2012      0.00000

 k-point   103 :       0.2667    0.4667    0.0000
  band No.  band energies     occupation 
      1     -14.4774      2.00000
      2     -14.3919      2.00000
      3      -8.8255      2.00000
      4      -8.7491      2.00000
      5      -5.8320      2.00000
      6      -5.4977      2.00000
      7      -4.6702      2.00000
      8      -4.4098      2.00000
      9      -3.6970      2.00000
     10      -3.4333      2.00000
     11       0.4189      0.00000
     12       0.7772      0.00000
     13       1.3412      0.00000
     14       1.5753      0.00000

 k-point   104 :       0.3333    0.4667    0.0000
  band No.  band energies     occupation 
      1     -14.4259      2.00000
      2     -14.3608      2.00000
      3      -8.6407      2.00000
      4      -8.5910      2.00000
      5      -6.1988      2.00000
      6      -5.8950      2.00000
      7      -4.9543      2.00000
      8      -4.6994      2.00000
      9      -3.8024      2.00000
     10      -3.6090      2.00000
     11       0.7767      0.00000
     12       1.0529      0.00000
     13       1.8577      0.00000
     14       2.1144      0.00000

 k-point   105 :       0.4000    0.4667    0.0000
  band No.  band energies     occupation 
      1     -14.3807      2.00000
      2     -14.3399      2.00000
      3      -8.4669      2.00000
      4      -8.4439      2.00000
      5      -6.4464      2.00000
      6      -6.2246      2.00000
      7      -5.1933      2.00000
      8      -5.0041      2.00000
      9      -3.8012      2.00000
     10      -3.6835      2.00000
     11       1.0101      0.00000
     12       1.1811      0.00000
     13       2.3377      0.00000
     14       2.5559      0.00000

 k-point   106 :       0.4667    0.4667    0.0000
  band No.  band energies     occupation 
      1     -14.3489      2.00000
      2     -14.3350      2.00000
      3      -8.3552      2.00000
      4      -8.3501      2.00000
      5      -6.5389      2.00000
      6      -6.4557      2.00000
      7      -5.2909      2.00000
      8      -5.2206      2.00000
      9      -3.7671      2.00000
     10      -3.7274      2.00000
     11       1.1570      0.00000
     12       1.2149      0.00000
     13       2.6209      0.00000
     14       2.7319      0.00000

 k-point   107 :      -0.4667    0.4667    0.0000
  band No.  band energies     occupation 
      1     -14.3489      2.00000
      2     -14.3350      2.00000
      3      -8.3552      2.00000
      4      -8.3501      2.00000
      5      -6.5389      2.00000
      6      -6.4557      2.00000
      7      -5.2909      2.00000
      8      -5.2206      2.00000
      9      -3.7671      2.00000
     10      -3.7274      2.00000
     11       1.1570      0.00000
     12       1.2149      0.00000
     13       2.6209      0.00000
     14       2.7319      0.00000

 k-point   108 :      -0.4000    0.4667    0.0000
  band No.  band energies     occupation 
      1     -14.3807      2.00000
      2     -14.3399      2.00000
      3      -8.4669      2.00000
      4      -8.4439      2.00000
      5      -6.4464      2.00000
      6      -6.2246      2.00000
      7      -5.1933      2.00000
      8      -5.0041      2.00000
      9      -3.8012      2.00000
     10      -3.6835      2.00000
     11       1.0101      0.00000
     12       1.1811      0.00000
     13       2.3377      0.00000
     14       2.5559      0.00000

 k-point   109 :      -0.3333    0.4667    0.0000
  band No.  band energies     occupation 
      1     -14.4259      2.00000
      2     -14.3608      2.00000
      3      -8.6407      2.00000
      4      -8.5910      2.00000
      5      -6.1988      2.00000
      6      -5.8950      2.00000
      7      -4.9543      2.00000
      8      -4.6994      2.00000
      9      -3.8024      2.00000
     10      -3.6090      2.00000
     11       0.7767      0.00000
     12       1.0529      0.00000
     13       1.8577      0.00000
     14       2.1144      0.00000

 k-point   110 :      -0.2667    0.4667    0.0000
  band No.  band energies     occupation 
      1     -14.4774      2.00000
      2     -14.3919      2.00000
      3      -8.8255      2.00000
      4      -8.7491      2.00000
      5      -5.8320      2.00000
      6      -5.4977      2.00000
      7      -4.6702      2.00000
      8      -4.4098      2.00000
      9      -3.6970      2.00000
     10      -3.4333      2.00000
     11       0.4189      0.00000
     12       0.7772      0.00000
     13       1.3412      0.00000
     14       1.5753      0.00000

 k-point   111 :      -0.2000    0.4667    0.0000
  band No.  band energies     occupation 
      1     -14.5275      2.00000
      2     -14.4259      2.00000
      3      -8.9889      2.00000
      4      -8.8913      2.00000
      5      -5.3795      2.00000
      6      -5.0625      2.00000
      7      -4.4688      2.00000
      8      -4.2374      2.00000
      9      -3.3834      2.00000
     10      -3.0958      2.00000
     11      -0.1002      0.00000
     12       0.2476      0.00000
     13       0.9800      0.00000
     14       1.2012      0.00000

 k-point   112 :      -0.1333    0.4667    0.0000
  band No.  band energies     occupation 
      1     -14.5689      2.00000
      2     -14.4560      2.00000
      3      -9.1138      2.00000
      4      -9.0015      2.00000
      5      -4.8890      2.00000
      6      -4.7034      2.00000
      7      -4.2769      2.00000
      8      -4.1548      2.00000
      9      -2.9099      2.00000
     10      -2.7143      2.00000
     11      -0.6030      0.00000
     12      -0.3869      0.00000
     13       0.7758      0.00000
     14       0.8443      0.00000

 k-point   113 :      -0.0667    0.4667    0.0000
  band No.  band energies     occupation 
      1     -14.5961      2.00000
      2     -14.4764      2.00000
      3      -9.1914      2.00000
      4      -9.0706      2.00000
      5      -4.5842      2.00000
      6      -4.4867      2.00000
      7      -4.0513      2.00000
      8      -3.9353      2.00000
      9      -2.5789      2.00000
     10      -2.4834      2.00000
     11      -0.8466      0.00000
     12      -0.7305      0.00000
     13       0.2496      0.00000
     14       0.5508      0.00000


--------------------------------------------------------------------------------------------------------


 soft charge-density along one line, spin component           1
         0         1         2         3         4         5         6         7         8         9
 total charge-density along one line
 
 pseudopotential strength for first ion, spin component:           1
 30.102 -23.447  -0.000  -0.090   0.040  -0.000  -0.142   0.063
-23.447  28.125   0.000   0.051  -0.022   0.000   0.083  -0.036
 -0.000   0.000   6.335  -0.000   0.000   9.801  -0.000   0.000
 -0.090   0.051  -0.000   6.332   0.002  -0.000   9.796   0.003
  0.040  -0.022   0.000   0.002   6.334   0.000   0.003   9.800
 -0.000   0.000   9.801  -0.000   0.000  15.233  -0.000   0.000
 -0.142   0.083  -0.000   9.796   0.003  -0.000  15.225   0.004
  0.063  -0.036   0.000   0.003   9.800   0.000   0.004  15.231
  0.000  -0.000   0.008   0.000  -0.000   0.013   0.000  -0.000
 -0.000   0.000  -0.020  -0.000   0.000  -0.031  -0.000   0.000
 -0.003   0.004   0.000  -0.023  -0.005   0.000  -0.035  -0.007
  0.003  -0.002   0.000   0.009  -0.020   0.000   0.015  -0.031
 -0.001   0.000   0.000  -0.000   0.010   0.000  -0.000   0.015
 total augmentation occupancy for first ion, spin component:           1
  2.023  -0.015   0.000   0.239  -0.101   0.000  -0.043   0.019  -0.000  -0.000   0.022   0.003  -0.000
 -0.015   0.009  -0.000  -0.073   0.031   0.000   0.019  -0.007  -0.000  -0.000  -0.002   0.001  -0.001
  0.000  -0.000   1.507   0.000  -0.000  -0.405   0.000   0.000   0.141  -0.044   0.000  -0.000  -0.000
  0.239  -0.073   0.000   1.842   0.002   0.000  -0.485  -0.017   0.000   0.000  -0.266  -0.022  -0.001
 -0.101   0.031  -0.000   0.002   1.486   0.000  -0.017  -0.392  -0.000   0.000  -0.091  -0.047  -0.007
  0.000   0.000  -0.405   0.000   0.000   0.117  -0.000  -0.000  -0.038   0.012  -0.000  -0.000   0.000
 -0.043   0.019   0.000  -0.485  -0.017  -0.000   0.139   0.008  -0.000  -0.000   0.074   0.006   0.000
  0.019  -0.007   0.000  -0.017  -0.392  -0.000   0.008   0.112   0.000  -0.000   0.024   0.013   0.002
 -0.000  -0.000   0.141   0.000  -0.000  -0.038  -0.000   0.000   0.074   0.000   0.000   0.000  -0.000
 -0.000  -0.000  -0.044   0.000   0.000   0.012  -0.000  -0.000   0.000   0.021  -0.000  -0.000  -0.000
  0.022  -0.002   0.000  -0.266  -0.091  -0.000   0.074   0.024   0.000  -0.000   0.077   0.007   0.002
  0.003   0.001  -0.000  -0.022  -0.047  -0.000   0.006   0.013   0.000  -0.000   0.007   0.022   0.001
 -0.000  -0.001  -0.000  -0.001  -0.007   0.000   0.000   0.002  -0.000  -0.000   0.002   0.001   0.017


------------------------ aborting loop because EDIFF is reached ----------------------------------------


    CHARGE:  cpu time    1.0218: real time    1.0230
    FORLOC:  cpu time    0.0020: real time    0.0020
    FORNL :  cpu time    0.3664: real time    0.3671
    STRESS:  cpu time    0.6629: real time    0.6643
    FORCOR:  cpu time    0.0419: real time    0.0420
    FORHAR:  cpu time    0.0106: real time    0.0107
    MIXING:  cpu time    0.0009: real time    0.0009
    OFIELD:  cpu time    0.0000: real time    0.0000

  FORCE on cell =-STRESS in cart. coord.  units (eV):
  Direction    XX          YY          ZZ          XY          YZ          ZX
  --------------------------------------------------------------------------------------
  Alpha Z     9.41012     9.41012     9.41012
  Ewald    1589.32095  1595.20108 -2045.51313    -0.00000    -0.00000     0.00068
  Hartree  1711.60119  1713.90764 -1664.40992    -0.00000    -0.00000     0.00013
  E(xc)     -77.62985   -77.64948   -78.83884     0.00000    -0.00000    -0.00001
  Local   -3553.61279 -3561.06176  3455.16370     0.00000     0.00000    -0.00079
  n-local   162.42227   162.66400   167.15359    -0.00000     0.00000     0.00009
  augment   -31.87593   -31.80612   -32.80203     0.00000     0.00000    -0.00001
  Kinetic   190.12015   189.13342   189.83523     0.00000    -0.00000    -0.00008
  Fock        0.00000     0.00000     0.00000     0.00000     0.00000     0.00000
  -------------------------------------------------------------------------------------
  Total      -0.24390    -0.20111    -0.00128     0.00000     0.00000     0.00001
  in kB      -1.02836    -0.84796    -0.00541     0.00000     0.00000     0.00006
  external pressure =       -0.63 kB  Pullay stress =        0.00 kB


 VOLUME and BASIS-vectors are now :
 -----------------------------------------------------------------------------
  energy-cutoff  :      600.00
  volume of cell :      379.99
      direct lattice vectors                 reciprocal lattice vectors
     4.426180333  0.000000000  0.000000000     0.225928436  0.000000000  0.000000000
     0.000000000  4.292477857  0.000000000     0.000000000  0.232965675  0.000000000
     0.000000000  0.000000000 20.000000000     0.000000000  0.000000000  0.050000000

  length of vectors
     4.426180333  4.292477857 20.000000000     0.225928436  0.232965675  0.050000000


 FORCES acting on ions
    electron-ion (+dipol)            ewald-force                    non-local-force                 convergence-correction
 -----------------------------------------------------------------------------------------------
   0.501E+01 -.153E-06 -.143E+03   -.673E+01 0.210E-06 0.147E+03   0.172E+01 -.493E-07 -.383E+01   -.848E-05 0.518E-09 0.448E-03
   0.501E+01 -.717E-07 0.143E+03   -.673E+01 0.908E-07 -.147E+03   0.172E+01 -.193E-07 0.383E+01   -.103E-04 -.610E-09 0.368E-03
   -.620E+01 0.198E-06 -.204E+03   0.673E+01 -.215E-06 0.206E+03   -.525E+00 0.131E-07 -.204E+01   -.718E-04 -.510E-09 0.754E-03
   -.620E+01 0.802E-07 0.204E+03   0.673E+01 -.855E-07 -.206E+03   -.525E+00 0.319E-08 0.204E+01   0.225E-04 -.578E-10 0.820E-03
 -----------------------------------------------------------------------------------------------
   -.239E+01 0.535E-07 -.223E-02   -.888E-15 0.162E-14 -.284E-13   0.239E+01 -.524E-07 0.149E-03   -.682E-04 -.660E-09 0.239E-02
 
 
 POSITION                                       TOTAL-FORCE (eV/Angst)
 -----------------------------------------------------------------------------------
      2.59133      3.21936     11.37667         0.000104      0.000000     -0.000104
      0.37824      1.07312      8.62331         0.000126     -0.000000      0.000326
      0.12681      1.07312     11.33603        -0.000130     -0.000000     -0.000042
      2.33990      3.21936      8.66400        -0.000101     -0.000000     -0.000180
 -----------------------------------------------------------------------------------
    total drift:                               -0.000111      0.000000      0.000311


--------------------------------------------------------------------------------------------------------



  FREE ENERGIE OF THE ION-ELECTRON SYSTEM (eV)
  ---------------------------------------------------
  free  energy   TOTEN  =       -16.26315515 eV

  energy  without entropy=      -16.26315515  energy(sigma->0) =      -16.26315515
 
 d Force = 0.9071506E-07[-0.159E-07, 0.197E-06]  d Energy = 0.1653669E-06-0.747E-07
 d Force = 0.2928773E-01[ 0.293E-01, 0.293E-01]  d Ewald  = 0.2928773E-01-0.773E-11


--------------------------------------------------------------------------------------------------------


    POTLOK:  cpu time    0.0431: real time    0.0433


--------------------------------------------------------------------------------------------------------




--------------------------------------------------------------------------------------------------------


  
 reached required accuracy - stopping structural energy minimisation
 writing wavefunctions
     LOOP+:  cpu time    7.8959: real time    8.4651
    4ORBIT:  cpu time    0.0000: real time    0.0000

 total amount of memory used by VASP MPI-rank0    63660. kBytes
=======================================================================

   base      :      30000. kBytes
   nonl-proj :      12679. kBytes
   fftplans  :       2678. kBytes
   grid      :       4349. kBytes
   one-center:          8. kBytes
   wavefun   :      13946. kBytes
 
  
  
 General timing and accounting informations for this job:
 ========================================================
  
                  Total CPU time used (sec):      478.403
                            User time (sec):      477.049
                          System time (sec):        1.354
                         Elapsed time (sec):      492.961
  
                   Maximum memory used (kb):      211260.
                   Average memory used (kb):           0.
  
                          Minor page faults:       192228
                          Major page faults:          109
                 Voluntary context switches:        13153
