
     Program PWSCF v.6.6 starts on  8May2023 at 21:38: 6 

     This program is part of the open-source Quantum ESPRESSO suite
     for quantum simulation of materials; please cite
         "P. Giannozzi et al., J. Phys.:Condens. Matter 21 395502 (2009);
         "P. Giannozzi et al., J. Phys.:Condens. Matter 29 465901 (2017);
          URL http://www.quantum-espresso.org", 
     in publications or presentations arising from this work. More details at
     http://www.quantum-espresso.org/quote

     Parallel version (MPI), running on    64 processors

     MPI processes distributed on     1 nodes
     K-points division:     npool     =       2
     R & G space division:  proc/nbgrp/npool/nimage =      32
     Fft bands division:     nmany     =       1
     Reading input from INCAR-bands.pw

     Current dimensions of program PWSCF are:
     Max number of different atomic species (ntypx) = 10
     Max number of k-points (npk) =  40000
     Max angular momentum in pseudopotentials (lmaxx) =  3

     Atomic positions and unit cell read from directory:
     ./wfc-out/bi2se3.save/
     Atomic positions from file used, from input discarded
 

     Subspace diagonalization in iterative solution of the eigenvalue problem:
     a serial algorithm will be used

     Message from routine setup:
     using ibrav=0 with symmetry is DISCOURAGED, use correct ibrav instead
 
     Parallelization info
     --------------------
     sticks:   dense  smooth     PW     G-vecs:    dense   smooth      PW
     Min          63      42     11                 5298     2882     416
     Max          64      43     12                 5309     2894     425
     Sum        2029    1345    379               169655    92305   13459
 


     bravais-lattice index     =            0
     lattice parameter (alat)  =       7.8197  a.u.
     unit-cell volume          =     955.3447 (a.u.)^3
     number of atoms/cell      =            5
     number of atomic types    =            2
     number of electrons       =       118.00
     number of Kohn-Sham states=           71
     kinetic-energy cutoff     =      80.0000  Ry
     charge density cutoff     =     480.0000  Ry
     Exchange-correlation= PBESOL
                           (   1   4  10   8   0   0   0)

     celldm(1)=   7.819688  celldm(2)=   0.000000  celldm(3)=   0.000000
     celldm(4)=   0.000000  celldm(5)=   0.000000  celldm(6)=   0.000000

     crystal axes: (cart. coord. in units of alat)
               a(1) = (  -0.500000  -0.866025   0.000000 )  
               a(2) = (   0.500000  -0.866025   0.000000 )  
               a(3) = (   0.000000   0.577350   2.307072 )  

     reciprocal axes: (cart. coord. in units 2 pi/alat)
               b(1) = ( -1.000000 -0.577350  0.144483 )  
               b(2) = (  1.000000 -0.577350  0.144483 )  
               b(3) = (  0.000000  0.000000  0.433450 )  


     PseudoPot. # 1 for Bi read from file:
     ./Bi.NC.SR.PBEsol.stringent.UPF
     MD5 check sum: 050e5b1909e7018b381bcf2e2e2a9a73
     Pseudo is Norm-conserving + core correction, Zval = 23.0
     Generated using ONCVPSP code by D. R. Hamann
     Using radial grid of 1472 points,  6 beta functions with: 
                l(1) =   0
                l(2) =   0
                l(3) =   1
                l(4) =   1
                l(5) =   2
                l(6) =   2

     PseudoPot. # 2 for Se read from file:
     ./Se.NC.SR.PBEsol.stringent.UPF
     MD5 check sum: 46ad0b39796781f83ed9f18e8cb8a6a4
     Pseudo is Norm-conserving + core correction, Zval = 24.0
     Generated using ONCVPSP code by D. R. Hamann
     Using radial grid of 1198 points,  6 beta functions with: 
                l(1) =   0
                l(2) =   0
                l(3) =   1
                l(4) =   1
                l(5) =   2
                l(6) =   2

     atomic species   valence    mass     pseudopotential
        Bi            23.00   208.98040     Bi( 1.00)
        Se            24.00    78.96000     Se( 1.00)

     12 Sym. Ops., with inversion, found ( 8 have fractional translation)


                                    s                        frac. trans.

      isym =  1     identity                                     

 cryst.   s( 1) = (     1          0          0      )
                  (     0          1          0      )
                  (     0          0          1      )

 cart.    s( 1) = (  1.0000000  0.0000000  0.0000000 )
                  (  0.0000000  1.0000000 -0.0000000 )
                  (  0.0000000  0.0000000  1.0000000 )


      isym =  2     180 deg rotation - cart. axis [1,0,0]        

 cryst.   s( 2) = (     0         -1          0      )
                  (    -1          0          0      )
                  (     0          0         -1      )

 cart.    s( 2) = (  1.0000000  0.0000000  0.0000000 )
                  (  0.0000000 -1.0000000  0.0000000 )
                  (  0.0000000  0.0000000 -1.0000000 )


      isym =  3     120 deg rotation - cryst. axis [0,0,1]       

 cryst.   s( 3) = (    -1          1          0      )    f =(  0.5000000 )
                  (    -1          0          0      )       (  0.0000000 )
                  (     1          0          1      )       (  0.0000000 )

 cart.    s( 3) = ( -0.5000000 -0.8660252 -0.0000001 )    f =( -0.2500000 )
                  (  0.8660256 -0.5000000 -0.0000002 )       ( -0.4330127 )
                  (  0.0000000  0.0000000  1.0000000 )       (  0.0000000 )


      isym =  4     120 deg rotation - cryst. axis [0,0,-1]      

 cryst.   s( 4) = (     0         -1          0      )    f =(  0.0000000 )
                  (     1         -1          0      )       (  0.5000000 )
                  (     0          1          1      )       (  0.0000000 )

 cart.    s( 4) = ( -0.5000000  0.8660252  0.0000001 )    f =(  0.2500000 )
                  ( -0.8660256 -0.5000000 -0.0000002 )       ( -0.4330127 )
                  (  0.0000000  0.0000000  1.0000000 )       (  0.0000000 )


      isym =  5     180 deg rotation - cryst. axis [0,1,0]       

 cryst.   s( 5) = (    -1          1          0      )    f =(  0.0000000 )
                  (     0          1          0      )       (  0.5000000 )
                  (     0         -1         -1      )       (  0.0000000 )

 cart.    s( 5) = ( -0.5000000 -0.8660252 -0.0000001 )    f =(  0.2500000 )
                  ( -0.8660256  0.5000000  0.0000002 )       ( -0.4330127 )
                  (  0.0000000  0.0000000 -1.0000000 )       (  0.0000000 )


      isym =  6     180 deg rotation - cryst. axis [1,1,0]       

 cryst.   s( 6) = (     1          0          0      )    f =(  0.5000000 )
                  (     1         -1          0      )       (  0.0000000 )
                  (    -1          0         -1      )       (  0.0000000 )

 cart.    s( 6) = ( -0.5000000  0.8660252  0.0000001 )    f =( -0.2500000 )
                  (  0.8660256  0.5000000  0.0000002 )       ( -0.4330127 )
                  (  0.0000000  0.0000000 -1.0000000 )       (  0.0000000 )


      isym =  7     inversion                                    

 cryst.   s( 7) = (    -1          0          0      )
                  (     0         -1          0      )
                  (     0          0         -1      )

 cart.    s( 7) = ( -1.0000000  0.0000000  0.0000000 )
                  (  0.0000000 -1.0000000  0.0000000 )
                  (  0.0000000  0.0000000 -1.0000000 )


      isym =  8     inv. 180 deg rotation - cart. axis [1,0,0]   

 cryst.   s( 8) = (     0          1          0      )
                  (     1          0          0      )
                  (     0          0          1      )

 cart.    s( 8) = ( -1.0000000  0.0000000  0.0000000 )
                  (  0.0000000  1.0000000 -0.0000000 )
                  (  0.0000000  0.0000000  1.0000000 )


      isym =  9     inv. 120 deg rotation - cryst. axis [0,0,1]  

 cryst.   s( 9) = (     1         -1          0      )    f =(  0.5000000 )
                  (     1          0          0      )       (  0.0000000 )
                  (    -1          0         -1      )       (  0.0000000 )

 cart.    s( 9) = (  0.5000000  0.8660252  0.0000001 )    f =( -0.2500000 )
                  ( -0.8660256  0.5000000  0.0000002 )       ( -0.4330127 )
                  (  0.0000000  0.0000000 -1.0000000 )       (  0.0000000 )


      isym = 10     inv. 120 deg rotation - cryst. axis [0,0,-1] 

 cryst.   s(10) = (     0          1          0      )    f =(  0.0000000 )
                  (    -1          1          0      )       (  0.5000000 )
                  (     0         -1         -1      )       (  0.0000000 )

 cart.    s(10) = (  0.5000000 -0.8660252 -0.0000001 )    f =(  0.2500000 )
                  (  0.8660256  0.5000000  0.0000002 )       ( -0.4330127 )
                  (  0.0000000  0.0000000 -1.0000000 )       (  0.0000000 )


      isym = 11     inv. 180 deg rotation - cryst. axis [0,1,0]  

 cryst.   s(11) = (     1         -1          0      )    f =(  0.0000000 )
                  (     0         -1          0      )       (  0.5000000 )
                  (     0          1          1      )       (  0.0000000 )

 cart.    s(11) = (  0.5000000  0.8660252  0.0000001 )    f =(  0.2500000 )
                  (  0.8660256 -0.5000000 -0.0000002 )       ( -0.4330127 )
                  (  0.0000000  0.0000000  1.0000000 )       (  0.0000000 )


      isym = 12     inv. 180 deg rotation - cryst. axis [1,1,0]  

 cryst.   s(12) = (    -1          0          0      )    f =(  0.5000000 )
                  (    -1          1          0      )       (  0.0000000 )
                  (     1          0          1      )       (  0.0000000 )

 cart.    s(12) = (  0.5000000 -0.8660252 -0.0000001 )    f =( -0.2500000 )
                  ( -0.8660256 -0.5000000 -0.0000002 )       ( -0.4330127 )
                  (  0.0000000  0.0000000  1.0000000 )       (  0.0000000 )


   Cartesian axes

     site n.     atom                  positions (alat units)
         1           Bi  tau(   1) = (   0.0000000  -0.2886753   1.6080294  )
         2           Bi  tau(   2) = (   0.0000000  -0.8660255   0.6990429  )
         3           Se  tau(   3) = (   0.0000000   0.2886750   1.1535362  )
         4           Se  tau(   4) = (   0.0000000  -0.2886752   0.2722345  )
         5           Se  tau(   5) = (   0.0000000  -0.8660257   2.0348378  )

   Crystallographic axes

     site n.     atom                  positions (cryst. coord.)
         1           Bi  tau(   1) = (  0.3990000  0.3990000  0.6970000  )
         2           Bi  tau(   2) = (  0.6010000  0.6010000  0.3030000  )
         3           Se  tau(   3) = ( -0.0000000 -0.0000000  0.5000000  )
         4           Se  tau(   4) = (  0.2060000  0.2060000  0.1180000  )
         5           Se  tau(   5) = (  0.7940000  0.7940000  0.8820000  )

     number of k points=    81  Marzari-Vanderbilt smearing, width (Ry)=  0.0073
                       cart. coord. in units 2pi/alat
        k(    1) = (   0.0000000   0.0000000   0.0000000), wk =   0.0246914
        k(    2) = (   0.0000000   0.0000000   0.0108362), wk =   0.0246914
        k(    3) = (   0.0000000   0.0000000   0.0216725), wk =   0.0246914
        k(    4) = (   0.0000000   0.0000000   0.0325087), wk =   0.0246914
        k(    5) = (   0.0000000   0.0000000   0.0433450), wk =   0.0246914
        k(    6) = (   0.0000000   0.0000000   0.0541812), wk =   0.0246914
        k(    7) = (   0.0000000   0.0000000   0.0650175), wk =   0.0246914
        k(    8) = (   0.0000000   0.0000000   0.0758537), wk =   0.0246914
        k(    9) = (   0.0000000   0.0000000   0.0866900), wk =   0.0246914
        k(   10) = (   0.0000000   0.0000000   0.0975262), wk =   0.0246914
        k(   11) = (   0.0000000   0.0000000   0.1083624), wk =   0.0246914
        k(   12) = (   0.0000000   0.0000000   0.1191987), wk =   0.0246914
        k(   13) = (   0.0000000   0.0000000   0.1300349), wk =   0.0246914
        k(   14) = (   0.0000000   0.0000000   0.1408712), wk =   0.0246914
        k(   15) = (   0.0000000   0.0000000   0.1517074), wk =   0.0246914
        k(   16) = (   0.0000000   0.0000000   0.1625437), wk =   0.0246914
        k(   17) = (   0.0000000   0.0000000   0.1733799), wk =   0.0246914
        k(   18) = (   0.0000000   0.0000000   0.1842162), wk =   0.0246914
        k(   19) = (   0.0000000   0.0000000   0.1950524), wk =   0.0246914
        k(   20) = (   0.0000000   0.0000000   0.2058886), wk =   0.0246914
        k(   21) = (   0.0000000   0.0000000   0.2167249), wk =   0.0246914
        k(   22) = (   0.0000000  -0.0288675   0.2131128), wk =   0.0246914
        k(   23) = (   0.0000000  -0.0577350   0.2095007), wk =   0.0246914
        k(   24) = (   0.0000000  -0.0866025   0.2058886), wk =   0.0246914
        k(   25) = (   0.0000000  -0.1154700   0.2022766), wk =   0.0246914
        k(   26) = (   0.0000000  -0.1443376   0.1986645), wk =   0.0246914
        k(   27) = (   0.0000000  -0.1732051   0.1950524), wk =   0.0246914
        k(   28) = (   0.0000000  -0.2020726   0.1914403), wk =   0.0246914
        k(   29) = (   0.0000000  -0.2309401   0.1878282), wk =   0.0246914
        k(   30) = (   0.0000000  -0.2598076   0.1842161), wk =   0.0246914
        k(   31) = (   0.0000000  -0.2886751   0.1806040), wk =   0.0246914
        k(   32) = (   0.0000000  -0.3175426   0.1769920), wk =   0.0246914
        k(   33) = (   0.0000000  -0.3464101   0.1733799), wk =   0.0246914
        k(   34) = (   0.0000000  -0.3752777   0.1697678), wk =   0.0246914
        k(   35) = (   0.0000000  -0.4041452   0.1661557), wk =   0.0246914
        k(   36) = (   0.0000000  -0.4330127   0.1625436), wk =   0.0246914
        k(   37) = (   0.0000000  -0.4618802   0.1589315), wk =   0.0246914
        k(   38) = (   0.0000000  -0.4907477   0.1553195), wk =   0.0246914
        k(   39) = (   0.0000000  -0.5196152   0.1517074), wk =   0.0246914
        k(   40) = (   0.0000000  -0.5484827   0.1480953), wk =   0.0246914
        k(   41) = (   0.0000000  -0.5773502   0.1444832), wk =   0.0246914
        k(   42) = (   0.0000000  -0.5484827   0.1372590), wk =   0.0246914
        k(   43) = (   0.0000000  -0.5196152   0.1300349), wk =   0.0246914
        k(   44) = (   0.0000000  -0.4907477   0.1228107), wk =   0.0246914
        k(   45) = (   0.0000000  -0.4618802   0.1155866), wk =   0.0246914
        k(   46) = (   0.0000000  -0.4330127   0.1083624), wk =   0.0246914
        k(   47) = (   0.0000000  -0.4041452   0.1011382), wk =   0.0246914
        k(   48) = (   0.0000000  -0.3752777   0.0939141), wk =   0.0246914
        k(   49) = (   0.0000000  -0.3464101   0.0866899), wk =   0.0246914
        k(   50) = (   0.0000000  -0.3175426   0.0794658), wk =   0.0246914
        k(   51) = (   0.0000000  -0.2886751   0.0722416), wk =   0.0246914
        k(   52) = (   0.0000000  -0.2598076   0.0650174), wk =   0.0246914
        k(   53) = (   0.0000000  -0.2309401   0.0577933), wk =   0.0246914
        k(   54) = (   0.0000000  -0.2020726   0.0505691), wk =   0.0246914
        k(   55) = (   0.0000000  -0.1732051   0.0433450), wk =   0.0246914
        k(   56) = (   0.0000000  -0.1443376   0.0361208), wk =   0.0246914
        k(   57) = (   0.0000000  -0.1154700   0.0288966), wk =   0.0246914
        k(   58) = (   0.0000000  -0.0866025   0.0216725), wk =   0.0246914
        k(   59) = (   0.0000000  -0.0577350   0.0144483), wk =   0.0246914
        k(   60) = (   0.0000000  -0.0288675   0.0072242), wk =   0.0246914
        k(   61) = (   0.0000000   0.0000000   0.0000000), wk =   0.0246914
        k(   62) = (  -0.0250000  -0.0144338   0.0036121), wk =   0.0246914
        k(   63) = (  -0.0500000  -0.0288675   0.0072242), wk =   0.0246914
        k(   64) = (  -0.0750000  -0.0433013   0.0108362), wk =   0.0246914
        k(   65) = (  -0.1000000  -0.0577350   0.0144483), wk =   0.0246914
        k(   66) = (  -0.1250000  -0.0721688   0.0180604), wk =   0.0246914
        k(   67) = (  -0.1500000  -0.0866025   0.0216725), wk =   0.0246914
        k(   68) = (  -0.1750000  -0.1010363   0.0252846), wk =   0.0246914
        k(   69) = (  -0.2000000  -0.1154700   0.0288966), wk =   0.0246914
        k(   70) = (  -0.2250000  -0.1299038   0.0325087), wk =   0.0246914
        k(   71) = (  -0.2500000  -0.1443376   0.0361208), wk =   0.0246914
        k(   72) = (  -0.2750001  -0.1587713   0.0397329), wk =   0.0246914
        k(   73) = (  -0.3000001  -0.1732051   0.0433450), wk =   0.0246914
        k(   74) = (  -0.3250001  -0.1876388   0.0469570), wk =   0.0246914
        k(   75) = (  -0.3500001  -0.2020726   0.0505691), wk =   0.0246914
        k(   76) = (  -0.3750001  -0.2165063   0.0541812), wk =   0.0246914
        k(   77) = (  -0.4000001  -0.2309401   0.0577933), wk =   0.0246914
        k(   78) = (  -0.4250001  -0.2453738   0.0614054), wk =   0.0246914
        k(   79) = (  -0.4500001  -0.2598076   0.0650174), wk =   0.0246914
        k(   80) = (  -0.4750001  -0.2742414   0.0686295), wk =   0.0246914
        k(   81) = (  -0.5000001  -0.2886751   0.0722416), wk =   0.0246914

                       cryst. coord.
        k(    1) = (   0.0000000   0.0000000   0.0000000), wk =   0.0246914
        k(    2) = (   0.0000000   0.0000000   0.0250000), wk =   0.0246914
        k(    3) = (   0.0000000   0.0000000   0.0500000), wk =   0.0246914
        k(    4) = (   0.0000000   0.0000000   0.0750000), wk =   0.0246914
        k(    5) = (   0.0000000   0.0000000   0.1000000), wk =   0.0246914
        k(    6) = (   0.0000000   0.0000000   0.1250000), wk =   0.0246914
        k(    7) = (   0.0000000   0.0000000   0.1500000), wk =   0.0246914
        k(    8) = (   0.0000000   0.0000000   0.1750000), wk =   0.0246914
        k(    9) = (   0.0000000   0.0000000   0.2000000), wk =   0.0246914
        k(   10) = (   0.0000000   0.0000000   0.2250000), wk =   0.0246914
        k(   11) = (   0.0000000   0.0000000   0.2500000), wk =   0.0246914
        k(   12) = (   0.0000000   0.0000000   0.2750000), wk =   0.0246914
        k(   13) = (   0.0000000   0.0000000   0.3000000), wk =   0.0246914
        k(   14) = (   0.0000000   0.0000000   0.3250000), wk =   0.0246914
        k(   15) = (   0.0000000   0.0000000   0.3500000), wk =   0.0246914
        k(   16) = (   0.0000000   0.0000000   0.3750000), wk =   0.0246914
        k(   17) = (   0.0000000   0.0000000   0.4000000), wk =   0.0246914
        k(   18) = (   0.0000000   0.0000000   0.4250000), wk =   0.0246914
        k(   19) = (   0.0000000   0.0000000   0.4500000), wk =   0.0246914
        k(   20) = (   0.0000000   0.0000000   0.4750000), wk =   0.0246914
        k(   21) = (   0.0000000   0.0000000   0.5000000), wk =   0.0246914
        k(   22) = (   0.0250000   0.0250000   0.4750000), wk =   0.0246914
        k(   23) = (   0.0500000   0.0500000   0.4500000), wk =   0.0246914
        k(   24) = (   0.0750000   0.0750000   0.4250000), wk =   0.0246914
        k(   25) = (   0.1000000   0.1000000   0.4000000), wk =   0.0246914
        k(   26) = (   0.1250000   0.1250000   0.3750000), wk =   0.0246914
        k(   27) = (   0.1500000   0.1500000   0.3500000), wk =   0.0246914
        k(   28) = (   0.1750000   0.1750000   0.3250000), wk =   0.0246914
        k(   29) = (   0.2000000   0.2000000   0.3000000), wk =   0.0246914
        k(   30) = (   0.2250000   0.2250000   0.2750000), wk =   0.0246914
        k(   31) = (   0.2500000   0.2500000   0.2500000), wk =   0.0246914
        k(   32) = (   0.2750000   0.2750000   0.2250000), wk =   0.0246914
        k(   33) = (   0.3000000   0.3000000   0.2000000), wk =   0.0246914
        k(   34) = (   0.3250000   0.3250000   0.1750000), wk =   0.0246914
        k(   35) = (   0.3500000   0.3500000   0.1500000), wk =   0.0246914
        k(   36) = (   0.3750000   0.3750000   0.1250000), wk =   0.0246914
        k(   37) = (   0.4000000   0.4000000   0.1000000), wk =   0.0246914
        k(   38) = (   0.4250000   0.4250000   0.0750000), wk =   0.0246914
        k(   39) = (   0.4500000   0.4500000   0.0500000), wk =   0.0246914
        k(   40) = (   0.4750000   0.4750000   0.0250000), wk =   0.0246914
        k(   41) = (   0.5000000   0.5000000   0.0000000), wk =   0.0246914
        k(   42) = (   0.4750000   0.4750000  -0.0000000), wk =   0.0246914
        k(   43) = (   0.4500000   0.4500000  -0.0000000), wk =   0.0246914
        k(   44) = (   0.4250000   0.4250000   0.0000000), wk =   0.0246914
        k(   45) = (   0.4000000   0.4000000   0.0000000), wk =   0.0246914
        k(   46) = (   0.3750000   0.3750000  -0.0000000), wk =   0.0246914
        k(   47) = (   0.3500000   0.3500000  -0.0000000), wk =   0.0246914
        k(   48) = (   0.3250000   0.3250000  -0.0000000), wk =   0.0246914
        k(   49) = (   0.3000000   0.3000000  -0.0000000), wk =   0.0246914
        k(   50) = (   0.2750000   0.2750000  -0.0000000), wk =   0.0246914
        k(   51) = (   0.2500000   0.2500000   0.0000000), wk =   0.0246914
        k(   52) = (   0.2250000   0.2250000  -0.0000000), wk =   0.0246914
        k(   53) = (   0.2000000   0.2000000   0.0000000), wk =   0.0246914
        k(   54) = (   0.1750000   0.1750000  -0.0000000), wk =   0.0246914
        k(   55) = (   0.1500000   0.1500000  -0.0000000), wk =   0.0246914
        k(   56) = (   0.1250000   0.1250000   0.0000000), wk =   0.0246914
        k(   57) = (   0.1000000   0.1000000   0.0000000), wk =   0.0246914
        k(   58) = (   0.0750000   0.0750000  -0.0000000), wk =   0.0246914
        k(   59) = (   0.0500000   0.0500000   0.0000000), wk =   0.0246914
        k(   60) = (   0.0250000   0.0250000  -0.0000000), wk =   0.0246914
        k(   61) = (   0.0000000   0.0000000   0.0000000), wk =   0.0246914
        k(   62) = (   0.0250000   0.0000000   0.0000000), wk =   0.0246914
        k(   63) = (   0.0500000   0.0000000   0.0000000), wk =   0.0246914
        k(   64) = (   0.0750000   0.0000000  -0.0000000), wk =   0.0246914
        k(   65) = (   0.1000000   0.0000000   0.0000000), wk =   0.0246914
        k(   66) = (   0.1250000   0.0000000   0.0000000), wk =   0.0246914
        k(   67) = (   0.1500000   0.0000000  -0.0000000), wk =   0.0246914
        k(   68) = (   0.1750000   0.0000000  -0.0000000), wk =   0.0246914
        k(   69) = (   0.2000000   0.0000000   0.0000000), wk =   0.0246914
        k(   70) = (   0.2250000   0.0000000  -0.0000000), wk =   0.0246914
        k(   71) = (   0.2500000   0.0000000   0.0000000), wk =   0.0246914
        k(   72) = (   0.2750000   0.0000000  -0.0000000), wk =   0.0246914
        k(   73) = (   0.3000000   0.0000000  -0.0000000), wk =   0.0246914
        k(   74) = (   0.3250000   0.0000000  -0.0000000), wk =   0.0246914
        k(   75) = (   0.3500000   0.0000000  -0.0000000), wk =   0.0246914
        k(   76) = (   0.3750000   0.0000000  -0.0000000), wk =   0.0246914
        k(   77) = (   0.4000000   0.0000000   0.0000000), wk =   0.0246914
        k(   78) = (   0.4250000   0.0000000   0.0000000), wk =   0.0246914
        k(   79) = (   0.4500000   0.0000000  -0.0000000), wk =   0.0246914
        k(   80) = (   0.4750000   0.0000000  -0.0000000), wk =   0.0246914
        k(   81) = (   0.5000000   0.0000000   0.0000000), wk =   0.0246914

     Dense  grid:   169655 G-vectors     FFT dimensions: (  60,  60, 135)

     Smooth grid:    92305 G-vectors     FFT dimensions: (  48,  48, 108)

     Dynamical RAM for                 wfc:       0.39 MB

     Dynamical RAM for     wfc (w. buffer):       0.39 MB

     Dynamical RAM for           str. fact:       0.16 MB

     Dynamical RAM for           local pot:       0.00 MB

     Dynamical RAM for          nlocal pot:       0.49 MB

     Dynamical RAM for                qrad:       3.52 MB

     Dynamical RAM for          rho,v,vnew:       0.65 MB

     Dynamical RAM for           G-vectors:       0.33 MB

     Dynamical RAM for          h,s,v(r/c):       0.92 MB

     Dynamical RAM for          <psi|beta>:       0.10 MB

     Dynamical RAM for                 psi:       0.78 MB

     Dynamical RAM for                hpsi:       0.78 MB

     Dynamical RAM for      wfcinit/wfcrot:       0.90 MB

     Estimated static dynamical RAM per process >       6.47 MB

     Estimated max dynamical RAM per process >       9.05 MB

     Estimated total dynamical RAM >     579.32 MB

     Check: negative core charge=   -0.000002

     The potential is recalculated from file :
     ./wfc-out/bi2se3.save/charge-density

     Starting wfcs are   65 randomized atomic wfcs +    6 random wfcs

     Band Structure Calculation
     Davidson diagonalization with overlap

     Computing kpt #:     1  of    41 on this pool
     total cpu time spent up to now is        2.9 secs

     Computing kpt #:     2  of    41 on this pool
     total cpu time spent up to now is        5.7 secs

     Computing kpt #:     3  of    41 on this pool
     total cpu time spent up to now is        7.4 secs

     Computing kpt #:     4  of    41 on this pool
     total cpu time spent up to now is        9.3 secs

     Computing kpt #:     5  of    41 on this pool
     total cpu time spent up to now is       10.5 secs

     Computing kpt #:     6  of    41 on this pool
     total cpu time spent up to now is       11.7 secs

     Computing kpt #:     7  of    41 on this pool
     total cpu time spent up to now is       13.0 secs

     Computing kpt #:     8  of    41 on this pool
     total cpu time spent up to now is       14.2 secs

     Computing kpt #:     9  of    41 on this pool
     total cpu time spent up to now is       15.4 secs

     Computing kpt #:    10  of    41 on this pool
     total cpu time spent up to now is       16.6 secs

     Computing kpt #:    11  of    41 on this pool
     total cpu time spent up to now is       17.8 secs

     Computing kpt #:    12  of    41 on this pool
     total cpu time spent up to now is       18.9 secs

     Computing kpt #:    13  of    41 on this pool
     total cpu time spent up to now is       20.1 secs

     Computing kpt #:    14  of    41 on this pool
     total cpu time spent up to now is       21.4 secs

     Computing kpt #:    15  of    41 on this pool
     total cpu time spent up to now is       22.7 secs

     Computing kpt #:    16  of    41 on this pool
     total cpu time spent up to now is       23.9 secs

     Computing kpt #:    17  of    41 on this pool
     total cpu time spent up to now is       25.1 secs

     Computing kpt #:    18  of    41 on this pool
     total cpu time spent up to now is       26.3 secs

     Computing kpt #:    19  of    41 on this pool
     total cpu time spent up to now is       27.5 secs

     Computing kpt #:    20  of    41 on this pool
     total cpu time spent up to now is       28.7 secs

     Computing kpt #:    21  of    41 on this pool
     total cpu time spent up to now is       29.9 secs

     Computing kpt #:    22  of    41 on this pool
     total cpu time spent up to now is       31.1 secs

     Computing kpt #:    23  of    41 on this pool
     total cpu time spent up to now is       32.6 secs

     Computing kpt #:    24  of    41 on this pool
     total cpu time spent up to now is       33.9 secs

     Computing kpt #:    25  of    41 on this pool
     total cpu time spent up to now is       35.2 secs

     Computing kpt #:    26  of    41 on this pool
     total cpu time spent up to now is       36.2 secs

     Computing kpt #:    27  of    41 on this pool
     total cpu time spent up to now is       37.3 secs

     Computing kpt #:    28  of    41 on this pool
     total cpu time spent up to now is       38.3 secs

     Computing kpt #:    29  of    41 on this pool
     total cpu time spent up to now is       39.3 secs

     Computing kpt #:    30  of    41 on this pool
     total cpu time spent up to now is       40.4 secs

     Computing kpt #:    31  of    41 on this pool
     total cpu time spent up to now is       41.4 secs

     Computing kpt #:    32  of    41 on this pool
     total cpu time spent up to now is       42.5 secs

     Computing kpt #:    33  of    41 on this pool
     total cpu time spent up to now is       43.5 secs

     Computing kpt #:    34  of    41 on this pool
     total cpu time spent up to now is       44.7 secs

     Computing kpt #:    35  of    41 on this pool
     total cpu time spent up to now is       45.9 secs

     Computing kpt #:    36  of    41 on this pool
     total cpu time spent up to now is       47.0 secs

     Computing kpt #:    37  of    41 on this pool
     total cpu time spent up to now is       48.2 secs

     Computing kpt #:    38  of    41 on this pool
     total cpu time spent up to now is       49.3 secs

     Computing kpt #:    39  of    41 on this pool
     total cpu time spent up to now is       50.4 secs

     Computing kpt #:    40  of    41 on this pool
     total cpu time spent up to now is       51.4 secs

     Computing kpt #:    41  of    41 on this pool
     total cpu time spent up to now is       52.5 secs

     ethr =  2.54E-12,  avg # of iterations = 43.4

     total cpu time spent up to now is       52.5 secs

     End of band structure calculation

          k = 0.0000 0.0000 0.0000 ( 11517 PWs)   bands (ev):

  -197.5334-197.3581-197.3581-143.1873-143.1873-137.0150-136.9850-136.9850
  -136.8394-136.8380-136.8033-136.8033-136.8001-136.8001 -81.2147 -81.2147
   -81.2147 -81.2147 -81.2092 -81.2092 -37.1887 -37.1804 -37.1803 -37.1503
   -37.1502 -36.9993 -36.9983 -36.9894 -36.9893 -36.9845 -36.9845 -36.9553
   -36.9553 -36.9499 -36.9499 -12.4929 -12.4929 -12.4910 -12.4910 -12.4807
   -12.4777 -12.4703 -12.4703 -12.4670 -12.4670  -3.8590  -2.6094  -2.5251
     0.7117   1.4504   8.2380   8.2518   8.5774   8.5774   9.0128   9.0128
     9.7223   9.7224  10.6588  10.7692  11.7596  11.7596  13.0291  13.3131
    13.3131  16.2389  16.7935  17.4462  17.4462  17.6223  18.1951

          k = 0.0000 0.0000 0.0108 ( 11529 PWs)   bands (ev):

  -197.5334-197.3581-197.3581-143.1873-143.1873-137.0156-136.9854-136.9854
  -136.8399-136.8386-136.8036-136.8036-136.8006-136.8006 -81.2147 -81.2147
   -81.2147 -81.2147 -81.2092 -81.2092 -37.1888 -37.1818 -37.1818 -37.1507
   -37.1507 -36.9995 -36.9984 -36.9906 -36.9906 -36.9862 -36.9862 -36.9557
   -36.9557 -36.9505 -36.9505 -12.4929 -12.4929 -12.4910 -12.4910 -12.4807
   -12.4777 -12.4703 -12.4703 -12.4670 -12.4670  -3.8585  -2.6313  -2.5026
     0.7062   1.4551   8.1915   8.2986   8.5769   8.5769   9.0134   9.0135
     9.7210   9.7210  10.6300  10.7984  11.7616  11.7616  13.0267  13.3109
    13.3109  16.2361  16.7943  17.4424  17.4424  17.6308  18.2010

          k = 0.0000 0.0000 0.0217 ( 11538 PWs)   bands (ev):

  -197.5334-197.3581-197.3581-143.1873-143.1873-137.0160-136.9857-136.9857
  -136.8414-136.8378-136.8038-136.8038-136.8011-136.8011 -81.2147 -81.2147
   -81.2147 -81.2147 -81.2092 -81.2092 -37.1877 -37.1838 -37.1838 -37.1511
   -37.1511 -37.0010 -36.9944 -36.9938 -36.9938 -36.9868 -36.9868 -36.9556
   -36.9556 -36.9514 -36.9514 -12.4929 -12.4929 -12.4910 -12.4910 -12.4807
   -12.4777 -12.4703 -12.4703 -12.4670 -12.4670  -3.8568  -2.6718  -2.4604
     0.6903   1.4686   8.1402   8.3525   8.5758   8.5758   9.0161   9.0161
     9.7173   9.7173  10.5765  10.8533  11.7676  11.7676  13.0199  13.3042
    13.3042  16.2277  16.7972  17.4314  17.4314  17.6559  18.2188

          k = 0.0000 0.0000 0.0325 ( 11538 PWs)   bands (ev):

  -197.5334-197.3581-197.3581-143.1873-143.1873-137.0160-136.9858-136.9857
  -136.8414-136.8379-136.8038-136.8038-136.8011-136.8011 -81.2147 -81.2147
   -81.2147 -81.2147 -81.2092 -81.2092 -37.1877 -37.1838 -37.1838 -37.1511
   -37.1511 -37.0010 -36.9945 -36.9937 -36.9937 -36.9869 -36.9869 -36.9556
   -36.9556 -36.9514 -36.9514 -12.4929 -12.4929 -12.4910 -12.4910 -12.4806
   -12.4777 -12.4703 -12.4703 -12.4670 -12.4670  -3.8541  -2.7158  -2.4137
     0.6652   1.4900   8.0899   8.4071   8.5750   8.5750   9.0198   9.0198
     9.7117   9.7117  10.5179  10.9141  11.7773  11.7773  13.0099  13.2942
    13.2942  16.2148  16.8024  17.4151  17.4151  17.6964  18.2469

          k = 0.0000 0.0000 0.0433 ( 11538 PWs)   bands (ev):

  -197.5334-197.3581-197.3581-143.1873-143.1873-137.0160-136.9858-136.9857
  -136.8413-136.8379-136.8038-136.8038-136.8012-136.8012 -81.2147 -81.2147
   -81.2147 -81.2147 -81.2092 -81.2092 -37.1877 -37.1838 -37.1838 -37.1511
   -37.1511 -37.0010 -36.9945 -36.9935 -36.9935 -36.9870 -36.9870 -36.9556
   -36.9556 -36.9514 -36.9514 -12.4929 -12.4929 -12.4910 -12.4910 -12.4806
   -12.4777 -12.4703 -12.4703 -12.4670 -12.4670  -3.8502  -2.7602  -2.3657
     0.6328   1.5174   8.0411   8.4622   8.5739   8.5739   9.0248   9.0248
     9.7039   9.7039  10.4582  10.9768  11.7907  11.7907  12.9960  13.2802
    13.2802  16.1978  16.8110  17.3944  17.3944  17.7505  18.2843

          k = 0.0000 0.0000 0.0542 ( 11541 PWs)   bands (ev):

  -197.5334-197.3581-197.3581-143.1873-143.1873-137.0161-136.9859-136.9859
  -136.8422-136.8372-136.8042-136.8041-136.8010-136.8010 -81.2147 -81.2147
   -81.2147 -81.2147 -81.2092 -81.2092 -37.1883 -37.1836 -37.1836 -37.1515
   -37.1515 -37.0026 -36.9942 -36.9942 -36.9942 -36.9860 -36.9860 -36.9563
   -36.9563 -36.9514 -36.9514 -12.4929 -12.4929 -12.4910 -12.4910 -12.4806
   -12.4777 -12.4703 -12.4703 -12.4670 -12.4670  -3.8453  -2.8040  -2.3173
     0.5946   1.5491   7.9937   8.5174   8.5725   8.5725   9.0312   9.0312
     9.6940   9.6941  10.3983  11.0403  11.8076  11.8076  12.9782  13.2627
    13.2627  16.1772  16.8237  17.3705  17.3705  17.8159  18.3296

          k = 0.0000 0.0000 0.0650 ( 11541 PWs)   bands (ev):

  -197.5334-197.3581-197.3581-143.1873-143.1873-137.0159-136.9859-136.9859
  -136.8414-136.8377-136.8039-136.8039-136.8014-136.8014 -81.2147 -81.2147
   -81.2147 -81.2147 -81.2092 -81.2092 -37.1878 -37.1836 -37.1836 -37.1516
   -37.1516 -37.0018 -36.9939 -36.9929 -36.9929 -36.9876 -36.9875 -36.9561
   -36.9561 -36.9518 -36.9518 -12.4929 -12.4929 -12.4910 -12.4910 -12.4806
   -12.4777 -12.4703 -12.4703 -12.4670 -12.4670  -3.8394  -2.8469  -2.2690
     0.5525   1.5835   7.9489   8.5709   8.5709   8.5725   9.0388   9.0388
     9.6826   9.6826  10.3388  11.1042  11.8278  11.8278  12.9568  13.2417
    13.2417  16.1547  16.8412  17.3449  17.3449  17.8906  18.3814

          k = 0.0000 0.0000 0.0759 ( 11529 PWs)   bands (ev):

  -197.5334-197.3581-197.3581-143.1873-143.1873-137.0149-136.9857-136.9857
  -136.8395-136.8375-136.8036-136.8036-136.8013-136.8013 -81.2147 -81.2147
   -81.2147 -81.2147 -81.2092 -81.2092 -37.1863 -37.1826 -37.1826 -37.1514
   -37.1514 -36.9991 -36.9934 -36.9910 -36.9910 -36.9871 -36.9870 -36.9558
   -36.9558 -36.9517 -36.9517 -12.4929 -12.4929 -12.4910 -12.4910 -12.4806
   -12.4778 -12.4703 -12.4703 -12.4670 -12.4670  -3.8326  -2.8885  -2.2213
     0.5078   1.6194   7.9054   8.5692   8.5692   8.6282   9.0476   9.0476
     9.6699   9.6699  10.2809  11.1683  11.8509  11.8509  12.9322  13.2177
    13.2177  16.1309  16.8640  17.3184  17.3184  17.9721  18.4391

          k = 0.0000 0.0000 0.0867 ( 11529 PWs)   bands (ev):

  -197.5334-197.3581-197.3581-143.1873-143.1873-137.0149-136.9857-136.9857
  -136.8395-136.8375-136.8036-136.8035-136.8013-136.8013 -81.2147 -81.2147
   -81.2147 -81.2147 -81.2092 -81.2092 -37.1862 -37.1825 -37.1825 -37.1514
   -37.1514 -36.9990 -36.9934 -36.9908 -36.9908 -36.9871 -36.9871 -36.9557
   -36.9557 -36.9517 -36.9517 -12.4929 -12.4929 -12.4910 -12.4910 -12.4806
   -12.4778 -12.4703 -12.4703 -12.4670 -12.4670  -3.8249  -2.9287  -2.1743
     0.4616   1.6555   7.8640   8.5674   8.5674   8.6834   9.0574   9.0574
     9.6556   9.6556  10.2226  11.2320  11.8766  11.8766  12.9044  13.1910
    13.1910  16.1067  16.8914  17.2919  17.2919  18.0569  18.5018

          k = 0.0000 0.0000 0.0975 ( 11529 PWs)   bands (ev):

  -197.5334-197.3581-197.3581-143.1873-143.1873-137.0152-136.9855-136.9855
  -136.8396-136.8380-136.8032-136.8032-136.8012-136.8012 -81.2147 -81.2147
   -81.2147 -81.2147 -81.2092 -81.2092 -37.1865 -37.1828 -37.1828 -37.1509
   -37.1509 -36.9988 -36.9942 -36.9914 -36.9913 -36.9872 -36.9871 -36.9548
   -36.9548 -36.9515 -36.9515 -12.4929 -12.4929 -12.4910 -12.4910 -12.4806
   -12.4778 -12.4703 -12.4703 -12.4670 -12.4670  -3.8165  -2.9673  -2.1287
     0.4151   1.6912   7.8248   8.5655   8.5655   8.7382   9.0681   9.0681
     9.6404   9.6404  10.1653  11.2946  11.9045  11.9045  12.8737  13.1619
    13.1619  16.0827  16.9239  17.2660  17.2661  18.1391  18.5688

          k = 0.0000 0.0000 0.1084 ( 11511 PWs)   bands (ev):

  -197.5334-197.3581-197.3581-143.1873-143.1873-137.0143-136.9849-136.9849
  -136.8386-136.8372-136.8024-136.8024-136.8008-136.8008 -81.2147 -81.2147
   -81.2147 -81.2147 -81.2092 -81.2092 -37.1853 -37.1809 -37.1809 -37.1500
   -37.1500 -36.9967 -36.9941 -36.9890 -36.9890 -36.9860 -36.9860 -36.9537
   -36.9537 -36.9507 -36.9507 -12.4929 -12.4929 -12.4910 -12.4910 -12.4806
   -12.4778 -12.4703 -12.4703 -12.4670 -12.4670  -3.8075  -3.0041  -2.0846
     0.3690   1.7256   7.7891   8.5641   8.5641   8.7926   9.0798   9.0798
     9.6243   9.6243  10.1090  11.3570  11.9344  11.9344  12.8410  13.1312
    13.1312  16.0603  16.9611  17.2415  17.2415  18.2054  18.6031

          k = 0.0000 0.0000 0.1192 ( 11499 PWs)   bands (ev):

  -197.5334-197.3581-197.3581-143.1873-143.1873-137.0131-136.9847-136.9847
  -136.8376-136.8358-136.8021-136.8021-136.8007-136.8007 -81.2147 -81.2147
   -81.2147 -81.2147 -81.2092 -81.2092 -37.1831 -37.1800 -37.1799 -37.1499
   -37.1499 -36.9943 -36.9918 -36.9873 -36.9873 -36.9858 -36.9858 -36.9534
   -36.9534 -36.9506 -36.9506 -12.4929 -12.4929 -12.4910 -12.4910 -12.4806
   -12.4778 -12.4703 -12.4703 -12.4670 -12.4670  -3.7980  -3.0388  -2.0425
     0.3243   1.7583   7.7560   8.5624   8.5624   8.8460   9.0917   9.0917
     9.6078   9.6078  10.0545  11.4184  11.9654  11.9654  12.8060  13.0991
    13.0991  16.0392  17.0028  17.2185  17.2185  18.2299  18.5919

          k = 0.0000 0.0000 0.1300 ( 11484 PWs)   bands (ev):

  -197.5334-197.3581-197.3581-143.1873-143.1873-137.0126-136.9841-136.9841
  -136.8371-136.8352-136.8015-136.8015-136.8001-136.8001 -81.2147 -81.2147
   -81.2147 -81.2147 -81.2092 -81.2092 -37.1819 -37.1789 -37.1789 -37.1488
   -37.1488 -36.9936 -36.9901 -36.9867 -36.9867 -36.9846 -36.9845 -36.9522
   -36.9522 -36.9496 -36.9496 -12.4929 -12.4929 -12.4910 -12.4910 -12.4805
   -12.4778 -12.4703 -12.4703 -12.4670 -12.4670  -3.7882  -3.0712  -2.0028
     0.2819   1.7886   7.7252   8.5607   8.5608   8.8988   9.1046   9.1046
     9.5912   9.5912  10.0008  11.4777  11.9971  11.9971  12.7697  13.0662
    13.0662  16.0199  17.0493  17.1971  17.1971  18.1986  18.6410

          k = 0.0000 0.0000 0.1409 ( 11479 PWs)   bands (ev):

  -197.5334-197.3581-197.3581-143.1873-143.1873-137.0124-136.9838-136.9838
  -136.8364-136.8357-136.8012-136.8012-136.7999-136.7999 -81.2147 -81.2147
   -81.2147 -81.2147 -81.2092 -81.2092 -37.1827 -37.1780 -37.1779 -37.1484
   -37.1484 -36.9936 -36.9917 -36.9859 -36.9859 -36.9832 -36.9832 -36.9519
   -36.9519 -36.9492 -36.9492 -12.4929 -12.4929 -12.4910 -12.4910 -12.4805
   -12.4778 -12.4703 -12.4703 -12.4670 -12.4670  -3.7784  -3.1012  -1.9661
     0.2422   1.8162   7.6975   8.5591   8.5591   8.9498   9.1173   9.1173
     9.5747   9.5747   9.9489  11.5344  12.0288  12.0288  12.7325  13.0334
    13.0334  16.0025  17.0999  17.1780  17.1780  18.1332  18.7276

          k = 0.0000 0.0000 0.1517 ( 11482 PWs)   bands (ev):

  -197.5334-197.3581-197.3581-143.1873-143.1873-137.0125-136.9840-136.9839
  -136.8364-136.8358-136.8013-136.8013-136.8000-136.8000 -81.2147 -81.2147
   -81.2147 -81.2147 -81.2092 -81.2092 -37.1826 -37.1782 -37.1782 -37.1486
   -37.1486 -36.9935 -36.9916 -36.9864 -36.9864 -36.9833 -36.9832 -36.9521
   -36.9521 -36.9494 -36.9494 -12.4929 -12.4929 -12.4910 -12.4910 -12.4805
   -12.4778 -12.4703 -12.4703 -12.4670 -12.4670  -3.7689  -3.1282  -1.9328
     0.2059   1.8409   7.6732   8.5575   8.5575   8.9983   9.1292   9.1292
     9.5587   9.5587   9.8994  11.5883  12.0597  12.0597  12.6954  13.0013
    13.0013  15.9875  17.1545  17.1611  17.1611  18.0544  18.8282

          k = 0.0000 0.0000 0.1625 ( 11482 PWs)   bands (ev):

  -197.5334-197.3581-197.3581-143.1873-143.1873-137.0129-136.9837-136.9837
  -136.8375-136.8355-136.8008-136.8008-136.8001-136.8001 -81.2147 -81.2147
   -81.2147 -81.2147 -81.2092 -81.2092 -37.1812 -37.1796 -37.1796 -37.1478
   -37.1478 -36.9935 -36.9890 -36.9884 -36.9884 -36.9841 -36.9841 -36.9506
   -36.9506 -36.9492 -36.9492 -12.4929 -12.4929 -12.4910 -12.4910 -12.4805
   -12.4779 -12.4703 -12.4703 -12.4670 -12.4670  -3.7599  -3.1521  -1.9035
     0.1738   1.8621   7.6526   8.5566   8.5566   9.0433   9.1404   9.1404
     9.5440   9.5440   9.8528  11.6376  12.0888  12.0888  12.6600  12.9710
    12.9710  15.9754  17.1468  17.1468  17.2131  17.9706  18.9230

          k = 0.0000 0.0000 0.1734 ( 11479 PWs)   bands (ev):

  -197.5334-197.3581-197.3581-143.1873-143.1873-137.0126-136.9837-136.9836
  -136.8371-136.8354-136.8006-136.8006-136.8001-136.8001 -81.2147 -81.2147
   -81.2147 -81.2147 -81.2092 -81.2092 -37.1816 -37.1787 -37.1787 -37.1478
   -37.1478 -36.9939 -36.9895 -36.9872 -36.9872 -36.9838 -36.9838 -36.9505
   -36.9505 -36.9493 -36.9493 -12.4929 -12.4929 -12.4910 -12.4910 -12.4805
   -12.4779 -12.4703 -12.4703 -12.4670 -12.4670  -3.7517  -3.1724  -1.8786
     0.1466   1.8799   7.6356   8.5557   8.5558   9.0848   9.1505   9.1505
     9.5307   9.5307   9.8107  11.6821  12.1154  12.1154  12.6270  12.9437
    12.9437  15.9649  17.1350  17.1350  17.2753  17.8860  18.9735

          k = 0.0000 0.0000 0.1842 ( 11491 PWs)   bands (ev):

  -197.5334-197.3581-197.3581-143.1873-143.1873-137.0135-136.9839-136.9839
  -136.8384-136.8358-136.8009-136.8009-136.8004-136.8004 -81.2147 -81.2147
   -81.2147 -81.2147 -81.2092 -81.2092 -37.1823 -37.1803 -37.1803 -37.1480
   -37.1480 -36.9951 -36.9896 -36.9893 -36.9893 -36.9849 -36.9849 -36.9507
   -36.9507 -36.9494 -36.9494 -12.4929 -12.4929 -12.4910 -12.4910 -12.4805
   -12.4779 -12.4703 -12.4703 -12.4670 -12.4670  -3.7449  -3.1887  -1.8587
     0.1247   1.8939   7.6219   8.5548   8.5548   9.1196   9.1590   9.1590
     9.5195   9.5195   9.7740  11.7193  12.1378  12.1378  12.5986  12.9205
    12.9205  15.9568  17.1256  17.1256  17.3416  17.8016  18.9753

          k = 0.0000 0.0000 0.1951 ( 11527 PWs)   bands (ev):

  -197.5334-197.3581-197.3581-143.1873-143.1873-137.0155-136.9851-136.9850
  -136.8403-136.8379-136.8020-136.8020-136.8015-136.8015 -81.2147 -81.2147
   -81.2147 -81.2147 -81.2092 -81.2092 -37.1844 -37.1844 -37.1840 -37.1495
   -37.1495 -36.9963 -36.9917 -36.9917 -36.9917 -36.9904 -36.9904 -36.9518
   -36.9518 -36.9514 -36.9514 -12.4929 -12.4929 -12.4910 -12.4910 -12.4805
   -12.4779 -12.4703 -12.4703 -12.4670 -12.4670  -3.7397  -3.2007  -1.8442
     0.1085   1.9040   7.6120   8.5539   8.5539   9.1464   9.1646   9.1646
     9.5107   9.5107   9.7452  11.7471  12.1548  12.1548  12.5760  12.9026
    12.9026  15.9511  17.1186  17.1186  17.4104  17.7181  18.9659

          k = 0.0000 0.0000 0.2059 ( 11524 PWs)   bands (ev):

  -197.5334-197.3581-197.3581-143.1873-143.1873-137.0152-136.9851-136.9850
  -136.8397-136.8379-136.8020-136.8020-136.8015-136.8015 -81.2147 -81.2147
   -81.2147 -81.2147 -81.2092 -81.2092 -37.1843 -37.1843 -37.1831 -37.1496
   -37.1496 -36.9945 -36.9918 -36.9917 -36.9917 -36.9903 -36.9903 -36.9518
   -36.9518 -36.9514 -36.9514 -12.4929 -12.4929 -12.4910 -12.4910 -12.4805
   -12.4779 -12.4703 -12.4703 -12.4670 -12.4670  -3.7365  -3.2081  -1.8354
     0.0987   1.9101   7.6065   8.5535   8.5535   9.1647   9.1688   9.1688
     9.5054   9.5054   9.7267  11.7652  12.1658  12.1658  12.5616  12.8914
    12.8914  15.9480  17.1146  17.1146  17.4822  17.6383  18.9584

          k = 0.0000 0.0000 0.2167 ( 11512 PWs)   bands (ev):

  -197.5334-197.3581-197.3581-143.1873-143.1873-137.0142-136.9849-136.9848
  -136.8392-136.8364-136.8018-136.8018-136.8013-136.8013 -81.2147 -81.2147
   -81.2147 -81.2147 -81.2092 -81.2092 -37.1832 -37.1832 -37.1816 -37.1494
   -37.1494 -36.9942 -36.9905 -36.9905 -36.9893 -36.9893 -36.9890 -36.9514
   -36.9514 -36.9513 -36.9513 -12.4929 -12.4929 -12.4910 -12.4910 -12.4805
   -12.4779 -12.4703 -12.4703 -12.4670 -12.4670  -3.7353  -3.2105  -1.8324
     0.0954   1.9121   7.6049   8.5535   8.5535   9.1703   9.1703   9.1713
     9.5038   9.5038   9.7208  11.7719  12.1697  12.1697  12.5566  12.8876
    12.8876  15.9469  17.1132  17.1133  17.5447  17.5731  18.9557

          k = 0.0000-0.0289 0.2131 ( 11532 PWs)   bands (ev):

  -197.5334-197.3581-197.3581-143.1873-143.1873-137.0146-136.9860-136.9855
  -136.8391-136.8374-136.8031-136.8024-136.8024-136.8021 -81.2147 -81.2147
   -81.2147 -81.2147 -81.2092 -81.2092 -37.1844 -37.1836 -37.1825 -37.1521
   -37.1508 -36.9959 -36.9932 -36.9910 -36.9898 -36.9897 -36.9884 -36.9556
   -36.9533 -36.9529 -36.9525 -12.4930 -12.4928 -12.4910 -12.4908 -12.4804
   -12.4778 -12.4704 -12.4704 -12.4671 -12.4670  -3.7302  -3.2053  -1.8304
     0.0973   1.9025   7.6085   8.5270   8.5441   8.9912   9.1011   9.1283
     9.5396   9.6602   9.8108  11.7312  12.0308  12.1473  12.6850  12.9213
    12.9435  15.9600  17.0301  17.1278  17.5555  17.6112  18.9733

          k = 0.0000-0.0577 0.2095 ( 11534 PWs)   bands (ev):

  -197.5334-197.3581-197.3581-143.1873-143.1873-137.0143-136.9862-136.9860
  -136.8385-136.8374-136.8031-136.8030-136.8028-136.8024 -81.2147 -81.2147
   -81.2147 -81.2147 -81.2092 -81.2092 -37.1849 -37.1830 -37.1818 -37.1531
   -37.1517 -36.9963 -36.9944 -36.9905 -36.9893 -36.9891 -36.9870 -36.9561
   -36.9544 -36.9542 -36.9533 -12.4931 -12.4923 -12.4911 -12.4904 -12.4802
   -12.4776 -12.4707 -12.4705 -12.4674 -12.4670  -3.7146  -3.1896  -1.8244
     0.1030   1.8737   7.6199   8.4194   8.5159   8.7418   8.9696   9.0391
     9.6122   9.8686   9.9901  11.6353  11.8233  12.0949  12.8629  13.0091
    13.1021  15.9992  16.8580  17.1719  17.5350  17.6940  19.0064

          k = 0.0000-0.0866 0.2059 ( 11531 PWs)   bands (ev):

  -197.5334-197.3581-197.3581-143.1873-143.1873-137.0136-136.9869-136.9859
  -136.8380-136.8365-136.8050-136.8027-136.8024-136.8022 -81.2147 -81.2147
   -81.2147 -81.2147 -81.2092 -81.2092 -37.1845 -37.1821 -37.1813 -37.1541
   -37.1521 -36.9965 -36.9926 -36.9895 -36.9890 -36.9883 -36.9868 -36.9576
   -36.9552 -36.9547 -36.9535 -12.4934 -12.4915 -12.4913 -12.4896 -12.4797
   -12.4772 -12.4712 -12.4707 -12.4678 -12.4670  -3.6886  -3.1635  -1.8148
     0.1119   1.8262   7.6390   8.1845   8.4662   8.5520   8.8613   8.9435
     9.6823  10.0360  10.1227  11.5414  11.6802  12.0381  13.0097  13.1262
    13.3044  16.0624  16.6688  17.2452  17.4620  17.7667  18.9063

          k = 0.0000-0.1155 0.2023 ( 11518 PWs)   bands (ev):

  -197.5334-197.3581-197.3581-143.1873-143.1873-137.0134-136.9861-136.9857
  -136.8379-136.8361-136.8049-136.8030-136.8017-136.8008 -81.2147 -81.2147
   -81.2147 -81.2147 -81.2092 -81.2092 -37.1832 -37.1821 -37.1810 -37.1537
   -37.1505 -36.9954 -36.9912 -36.9891 -36.9890 -36.9887 -36.9860 -36.9594
   -36.9538 -36.9523 -36.9517 -12.4938 -12.4915 -12.4904 -12.4885 -12.4792
   -12.4767 -12.4718 -12.4709 -12.4684 -12.4670  -3.6525  -3.1271  -1.8019
     0.1240   1.7607   7.6646   7.8845   8.3748   8.3923   8.8019   8.8592
     9.7316  10.0248  10.2449  11.4420  11.7160  11.9956  13.1365  13.2544
    13.4876  16.1358  16.4986  17.3229  17.3483  17.8377  18.7340

          k = 0.0000-0.1443 0.1987 ( 11516 PWs)   bands (ev):

  -197.5334-197.3581-197.3581-143.1873-143.1873-137.0133-136.9860-136.9859
  -136.8378-136.8361-136.8042-136.8032-136.8021-136.8011 -81.2147 -81.2147
   -81.2147 -81.2147 -81.2092 -81.2092 -37.1825 -37.1824 -37.1815 -37.1540
   -37.1502 -36.9942 -36.9915 -36.9893 -36.9892 -36.9888 -36.9865 -36.9590
   -36.9537 -36.9534 -36.9516 -12.4943 -12.4919 -12.4891 -12.4872 -12.4785
   -12.4762 -12.4723 -12.4712 -12.4691 -12.4670  -3.6064  -3.0807  -1.7863
     0.1384   1.6781   7.5711   7.6979   8.1873   8.2958   8.7741   8.7916
     9.7521   9.8359  10.3474  11.3627  11.9176  11.9777  13.2421  13.3816
    13.6245  16.1378  16.4345  17.1406  17.4800  17.9011  18.6089

          k = 0.0000-0.1732 0.1951 ( 11510 PWs)   bands (ev):

  -197.5334-197.3581-197.3581-143.1873-143.1873-137.0134-136.9859-136.9854
  -136.8378-136.8364-136.8037-136.8034-136.8017-136.8009 -81.2147 -81.2147
   -81.2147 -81.2147 -81.2092 -81.2092 -37.1835 -37.1819 -37.1806 -37.1529
   -37.1506 -36.9952 -36.9922 -36.9894 -36.9880 -36.9875 -36.9864 -36.9582
   -36.9539 -36.9522 -36.9518 -12.4950 -12.4923 -12.4876 -12.4856 -12.4777
   -12.4760 -12.4726 -12.4715 -12.4699 -12.4671  -3.5506  -3.0245  -1.7685
     0.1547   1.5794   7.2666   7.7336   7.9963   8.1836   8.7390   8.7620
     9.5679   9.7424  10.3723  11.3549  11.9883  12.1964  13.3206  13.5001
    13.7090  16.0018  16.5406  16.9491  17.6392  17.9346  18.5563

          k = 0.0000-0.2021 0.1914 ( 11499 PWs)   bands (ev):

  -197.5334-197.3581-197.3581-143.1873-143.1873-137.0134-136.9854-136.9850
  -136.8380-136.8361-136.8034-136.8022-136.8012-136.8008 -81.2147 -81.2147
   -81.2147 -81.2147 -81.2092 -81.2092 -37.1834 -37.1820 -37.1796 -37.1514
   -37.1501 -36.9951 -36.9923 -36.9899 -36.9874 -36.9871 -36.9849 -36.9565
   -36.9533 -36.9513 -36.9508 -12.4958 -12.4929 -12.4859 -12.4839 -12.4774
   -12.4758 -12.4723 -12.4719 -12.4706 -12.4671  -3.4856  -2.9590  -1.7495
     0.1719   1.4662   6.9752   7.7711   7.8084   8.0639   8.6970   8.7559
     9.2741   9.7046  10.3140  11.4234  12.0255  12.4996  13.3707  13.6044
    13.7460  15.8235  16.6904  16.8009  17.8256  17.9393  18.5747

          k = 0.0000-0.2309 0.1878 ( 11510 PWs)   bands (ev):

  -197.5334-197.3581-197.3581-143.1873-143.1873-137.0139-136.9859-136.9856
  -136.8380-136.8370-136.8032-136.8027-136.8024-136.8014 -81.2147 -81.2147
   -81.2147 -81.2147 -81.2092 -81.2092 -37.1847 -37.1820 -37.1808 -37.1526
   -37.1510 -36.9956 -36.9945 -36.9895 -36.9885 -36.9876 -36.9861 -36.9569
   -36.9541 -36.9529 -36.9524 -12.4967 -12.4935 -12.4840 -12.4821 -12.4779
   -12.4753 -12.4722 -12.4719 -12.4708 -12.4671  -3.4118  -2.8845  -1.7304
     0.1890   1.3402   6.7011   7.6241   7.8085   7.9422   8.6620   8.7347
     8.9999   9.6429  10.2018  11.5367  12.0840  12.7858  13.4020  13.6906
    13.7488  15.6322  16.6045  16.9552  17.9440  18.0375  18.6463

          k = 0.0000-0.2598 0.1842 ( 11515 PWs)   bands (ev):

  -197.5334-197.3581-197.3581-143.1873-143.1873-137.0139-136.9869-136.9853
  -136.8379-136.8372-136.8042-136.8030-136.8026-136.8014 -81.2147 -81.2147
   -81.2147 -81.2147 -81.2092 -81.2092 -37.1851 -37.1819 -37.1814 -37.1527
   -37.1523 -36.9960 -36.9946 -36.9894 -36.9890 -36.9881 -36.9864 -36.9553
   -36.9551 -36.9545 -36.9540 -12.4977 -12.4943 -12.4822 -12.4802 -12.4790
   -12.4750 -12.4724 -12.4717 -12.4698 -12.4672  -3.3297  -2.8017  -1.7121
     0.2048   1.2036   6.4483   7.4487   7.8232   7.8344   8.5937   8.6325
     8.8690   9.5646  10.0655  11.6640  12.1576  12.9833  13.4677  13.7387
    13.7573  15.4343  16.4969  17.1972  17.9750  18.2738  18.7583

          k = 0.0000-0.2887 0.1806 ( 11524 PWs)   bands (ev):

  -197.5334-197.3581-197.3581-143.1873-143.1873-137.0142-136.9877-136.9853
  -136.8383-136.8375-136.8054-136.8035-136.8023-136.8018 -81.2147 -81.2147
   -81.2147 -81.2147 -81.2092 -81.2092 -37.1858 -37.1825 -37.1823 -37.1532
   -37.1531 -36.9966 -36.9948 -36.9900 -36.9896 -36.9887 -36.9880 -36.9568
   -36.9566 -36.9542 -36.9542 -12.4988 -12.4951 -12.4803 -12.4802 -12.4782
   -12.4754 -12.4726 -12.4710 -12.4686 -12.4672  -3.2403  -2.7113  -1.6960
     0.2179   1.0589   6.2195   7.2821   7.7097   7.8257   8.3725   8.6073
     8.8715   9.4753   9.9227  11.7855  12.2398  13.0141  13.5925  13.7776
    13.8038  15.2348  16.4252  17.4650  18.0446  18.5327  18.9047

          k = 0.0000-0.3175 0.1770 ( 11530 PWs)   bands (ev):

  -197.5334-197.3581-197.3581-143.1873-143.1873-137.0144-136.9880-136.9858
  -136.8387-136.8374-136.8061-136.8034-136.8029-136.8021 -81.2147 -81.2147
   -81.2147 -81.2147 -81.2092 -81.2092 -37.1868 -37.1825 -37.1822 -37.1542
   -37.1539 -36.9979 -36.9958 -36.9894 -36.9893 -36.9888 -36.9885 -36.9584
   -36.9584 -36.9546 -36.9540 -12.5000 -12.4960 -12.4813 -12.4787 -12.4764
   -12.4761 -12.4725 -12.4699 -12.4672 -12.4671  -3.1444  -2.6142  -1.6835
     0.2263   0.9095   6.0171   7.1254   7.6034   7.7321   8.2290   8.5867
     8.9041   9.3795   9.7826  11.8871  12.3251  12.9397  13.6089  13.8313
    13.9859  15.0397  16.3891  17.7519  18.1575  18.8116  19.0797

          k = 0.0000-0.3464 0.1734 ( 11538 PWs)   bands (ev):

  -197.5334-197.3581-197.3581-143.1873-143.1873-137.0147-136.9885-136.9860
  -136.8390-136.8376-136.8067-136.8037-136.8033-136.8021 -81.2147 -81.2147
   -81.2147 -81.2147 -81.2092 -81.2092 -37.1878 -37.1830 -37.1826 -37.1550
   -37.1544 -36.9993 -36.9962 -36.9899 -36.9899 -36.9890 -36.9887 -36.9598
   -36.9591 -36.9547 -36.9544 -12.5012 -12.4968 -12.4825 -12.4775 -12.4769
   -12.4749 -12.4719 -12.4687 -12.4670 -12.4659  -3.0432  -2.5117  -1.6757
     0.2268   0.7606   5.8427   6.9794   7.5059   7.5414   8.1934   8.5708
     8.9465   9.2824   9.6533  11.9567  12.4099  12.8339  13.5788  13.8419
    14.2428  14.8562  16.3856  18.0475  18.3153  19.1075  19.2698

          k = 0.0000-0.3753 0.1698 ( 11541 PWs)   bands (ev):

  -197.5334-197.3581-197.3581-143.1873-143.1873-137.0148-136.9884-136.9864
  -136.8385-136.8383-136.8072-136.8042-136.8032-136.8020 -81.2147 -81.2147
   -81.2147 -81.2147 -81.2092 -81.2092 -37.1885 -37.1833 -37.1819 -37.1573
   -37.1529 -36.9996 -36.9971 -36.9911 -36.9902 -36.9886 -36.9870 -36.9631
   -36.9584 -36.9561 -36.9521 -12.5024 -12.4977 -12.4835 -12.4777 -12.4769
   -12.4736 -12.4707 -12.4675 -12.4667 -12.4646  -2.9380  -2.4056  -1.6736
     0.2135   0.6206   5.6980   6.8444   7.3163   7.4180   8.2104   8.5602
     8.9873   9.1867   9.5453  11.9791  12.4915  12.7371  13.5426  13.8381
    14.4713  14.7073  16.4115  18.3234  18.5249  19.3711  19.4168

          k = 0.0000-0.4041 0.1662 ( 11551 PWs)   bands (ev):

  -197.5334-197.3581-197.3581-143.1873-143.1873-137.0147-136.9888-136.9873
  -136.8387-136.8380-136.8067-136.8047-136.8044-136.8033 -81.2147 -81.2147
   -81.2147 -81.2147 -81.2092 -81.2092 -37.1891 -37.1834 -37.1818 -37.1597
   -37.1536 -36.9995 -36.9987 -36.9914 -36.9897 -36.9887 -36.9871 -36.9645
   -36.9593 -36.9574 -36.9546 -12.5036 -12.4985 -12.4845 -12.4785 -12.4766
   -12.4725 -12.4694 -12.4663 -12.4663 -12.4633  -2.8308  -2.2986  -1.6778
     0.1741   0.5048   5.5831   6.7188   7.0968   7.3401   8.2462   8.5553
     9.0087   9.0943   9.4748  11.9423  12.5672  12.6747  13.5086  13.8236
    14.4718  14.7798  16.4639  18.5037  18.7911  19.2647  19.7361

          k = 0.0000-0.4330 0.1625 ( 11553 PWs)   bands (ev):

  -197.5334-197.3581-197.3581-143.1873-143.1873-137.0144-136.9896-136.9871
  -136.8384-136.8376-136.8072-136.8053-136.8047-136.8031 -81.2147 -81.2147
   -81.2147 -81.2147 -81.2092 -81.2092 -37.1894 -37.1823 -37.1819 -37.1601
   -37.1546 -37.0005 -36.9984 -36.9902 -36.9894 -36.9877 -36.9874 -36.9653
   -36.9596 -36.9580 -36.9559 -12.5046 -12.4993 -12.4853 -12.4792 -12.4767
   -12.4717 -12.4680 -12.4657 -12.4653 -12.4622  -2.7239  -2.1946  -1.6875
     0.0964   0.4295   5.4973   6.6004   6.9010   7.2738   8.2906   8.5574
     8.9904   9.0075   9.4596  11.8532  12.6356  12.6504  13.4817  13.8025
    14.3414  14.9726  16.5414  18.4778  19.0689  19.3527  20.0160

          k = 0.0000-0.4619 0.1589 ( 11554 PWs)   bands (ev):

  -197.5334-197.3581-197.3581-143.1873-143.1873-137.0145-136.9898-136.9869
  -136.8386-136.8376-136.8071-136.8060-136.8039-136.8033 -81.2147 -81.2147
   -81.2147 -81.2147 -81.2092 -81.2092 -37.1891 -37.1830 -37.1820 -37.1595
   -37.1550 -37.0006 -36.9982 -36.9903 -36.9889 -36.9884 -36.9884 -36.9639
   -36.9598 -36.9579 -36.9567 -12.5055 -12.4999 -12.4859 -12.4797 -12.4768
   -12.4712 -12.4668 -12.4649 -12.4644 -12.4613  -2.6202  -2.1005  -1.6996
    -0.0098   0.3910   5.4392   6.4844   6.7419   7.2188   8.3399   8.5665
     8.9273   8.9333   9.4945  11.7362  12.6494  12.6954  13.4640  13.7778
    14.2172  15.1457  16.6415  18.2906  19.3444  19.6386  20.2488

          k = 0.0000-0.4907 0.1553 ( 11557 PWs)   bands (ev):

  -197.5334-197.3581-197.3581-143.1873-143.1873-137.0146-136.9900-136.9871
  -136.8385-136.8379-136.8073-136.8062-136.8043-136.8032 -81.2147 -81.2147
   -81.2147 -81.2147 -81.2092 -81.2092 -37.1896 -37.1832 -37.1817 -37.1601
   -37.1552 -37.0010 -36.9986 -36.9899 -36.9896 -36.9890 -36.9875 -36.9647
   -36.9603 -36.9580 -36.9569 -12.5063 -12.5005 -12.4864 -12.4802 -12.4769
   -12.4709 -12.4658 -12.4642 -12.4636 -12.4605  -2.5240  -2.0268  -1.7074
    -0.1203   0.3719   5.4050   6.3710   6.6270   7.1755   8.3938   8.5825
     8.8545   8.8574   9.5538  11.6164  12.6569  12.7447  13.4563  13.7530
    14.1113  15.2852  16.7616  18.0629  19.6263  19.9750  20.4685

          k = 0.0000-0.5196 0.1517 ( 11551 PWs)   bands (ev):

  -197.5334-197.3581-197.3581-143.1873-143.1873-137.0138-136.9898-136.9873
  -136.8379-136.8370-136.8078-136.8053-136.8045-136.8036 -81.2147 -81.2147
   -81.2147 -81.2147 -81.2092 -81.2092 -37.1882 -37.1824 -37.1815 -37.1613
   -37.1545 -36.9992 -36.9975 -36.9902 -36.9888 -36.9878 -36.9873 -36.9656
   -36.9619 -36.9581 -36.9551 -12.5068 -12.5009 -12.4868 -12.4805 -12.4770
   -12.4707 -12.4651 -12.4637 -12.4631 -12.4600  -2.4417  -1.9853  -1.7025
    -0.2154   0.3620   5.3899   6.2718   6.5531   7.1445   8.4510   8.6059
     8.7785   8.7898   9.6131  11.5141  12.6650  12.7815  13.4570  13.7321
    14.0288  15.3879  16.8960  17.8410  19.8954  20.2822  20.6853

          k = 0.0000-0.5485 0.1481 ( 11544 PWs)   bands (ev):

  -197.5334-197.3581-197.3581-143.1873-143.1873-137.0137-136.9894-136.9869
  -136.8381-136.8366-136.8074-136.8049-136.8038-136.8035 -81.2147 -81.2147
   -81.2147 -81.2147 -81.2092 -81.2092 -37.1879 -37.1821 -37.1809 -37.1605
   -37.1538 -36.9990 -36.9969 -36.9905 -36.9880 -36.9872 -36.9870 -36.9637
   -36.9619 -36.9575 -36.9544 -12.5072 -12.5011 -12.4870 -12.4807 -12.4770
   -12.4706 -12.4646 -12.4633 -12.4628 -12.4596  -2.3833  -1.9741  -1.6881
    -0.2801   0.3570   5.3856   6.2033   6.5122   7.1259   8.5071   8.6362
     8.7077   8.7351   9.6566  11.4447  12.6707  12.8047  13.4611  13.7182
    13.9756  15.4503  17.0275  17.6547  20.1114  20.4613  20.9601

          k = 0.0000-0.5774 0.1445 ( 11538 PWs)   bands (ev):

  -197.5334-197.3581-197.3581-143.1873-143.1873-137.0133-136.9886-136.9873
  -136.8377-136.8362-136.8057-136.8051-136.8042-136.8039 -81.2147 -81.2147
   -81.2147 -81.2147 -81.2092 -81.2092 -37.1874 -37.1813 -37.1804 -37.1613
   -37.1526 -36.9978 -36.9968 -36.9883 -36.9882 -36.9878 -36.9861 -36.9646
   -36.9623 -36.9555 -36.9544 -12.5073 -12.5012 -12.4871 -12.4808 -12.4770
   -12.4706 -12.4645 -12.4632 -12.4627 -12.4595  -2.3615  -1.9743  -1.6804
    -0.3031   0.3554   5.3852   6.1787   6.4993   7.1194   8.5388   8.6603
     8.6715   8.7024   9.6732  11.4203  12.6727  12.8124  13.4636  13.7130
    13.9571  15.4714  17.0952  17.5684  20.2021  20.5020  21.2359

          k = 0.0000-0.5485 0.1373 ( 11534 PWs)   bands (ev):

  -197.5334-197.3581-197.3581-143.1873-143.1873-137.0134-136.9886-136.9868
  -136.8379-136.8362-136.8064-136.8042-136.8036-136.8035 -81.2147 -81.2147
   -81.2147 -81.2147 -81.2092 -81.2092 -37.1875 -37.1809 -37.1804 -37.1597
   -37.1529 -36.9986 -36.9966 -36.9891 -36.9879 -36.9873 -36.9851 -36.9626
   -36.9613 -36.9565 -36.9538 -12.5072 -12.5011 -12.4870 -12.4807 -12.4770
   -12.4706 -12.4646 -12.4633 -12.4628 -12.4596  -2.3842  -1.9736  -1.6865
    -0.2846   0.3607   5.3689   6.2330   6.5086   7.1256   8.5370   8.6601
     8.6780   8.7107   9.6168  11.4852  12.6785  12.8118  13.4615  13.7108
    13.9662  15.4338  17.0888  17.5884  20.1196  20.4711  20.9456

          k = 0.0000-0.5196 0.1300 ( 11561 PWs)   bands (ev):

  -197.5334-197.3581-197.3581-143.1873-143.1873-137.0146-136.9899-136.9875
  -136.8387-136.8377-136.8078-136.8055-136.8046-136.8039 -81.2147 -81.2147
   -81.2147 -81.2147 -81.2092 -81.2092 -37.1891 -37.1835 -37.1826 -37.1612
   -37.1547 -36.9998 -36.9985 -36.9907 -36.9895 -36.9894 -36.9889 -36.9655
   -36.9618 -36.9583 -36.9555 -12.5068 -12.5009 -12.4868 -12.4805 -12.4770
   -12.4707 -12.4651 -12.4637 -12.4631 -12.4600  -2.4456  -1.9785  -1.7017
    -0.2317   0.3761   5.3361   6.3719   6.5415   7.1433   8.5315   8.6620
     8.6964   8.7312   9.4744  11.6534  12.6971  12.8089  13.4541  13.7029
    13.9929  15.3230  17.0732  17.6445  19.9311  20.2648  20.7154

          k = 0.0000-0.4907 0.1228 ( 11567 PWs)   bands (ev):

  -197.5334-197.3581-197.3581-143.1873-143.1873-137.0151-136.9902-136.9874
  -136.8394-136.8381-136.8074-136.8064-136.8046-136.8037 -81.2147 -81.2147
   -81.2147 -81.2147 -81.2092 -81.2092 -37.1900 -37.1838 -37.1833 -37.1609
   -37.1550 -37.0013 -36.9990 -36.9913 -36.9903 -36.9897 -36.9895 -36.9652
   -36.9613 -36.9580 -36.9565 -12.5063 -12.5005 -12.4864 -12.4802 -12.4769
   -12.4709 -12.4658 -12.4642 -12.4637 -12.4605  -2.5335  -2.0004  -1.7197
    -0.1510   0.4010   5.3163   6.5107   6.6552   7.1726   8.5172   8.6704
     8.7262   8.7614   9.2948  11.8729  12.7370  12.8044  13.4408  13.6893
    14.0378  15.1495  17.0555  17.7291  19.7059  19.9041  20.5736

          k = 0.0000-0.4619 0.1156 ( 11562 PWs)   bands (ev):

  -197.5334-197.3581-197.3581-143.1873-143.1873-137.0150-136.9898-136.9873
  -136.8393-136.8379-136.8071-136.8059-136.8046-136.8035 -81.2147 -81.2147
   -81.2147 -81.2147 -81.2092 -81.2092 -37.1900 -37.1837 -37.1825 -37.1604
   -37.1546 -37.0009 -36.9995 -36.9912 -36.9898 -36.9895 -36.9882 -36.9654
   -36.9602 -36.9574 -36.9563 -12.5055 -12.4999 -12.4859 -12.4797 -12.4768
   -12.4712 -12.4668 -12.4650 -12.4644 -12.4613  -2.6373  -2.0430  -1.7380
    -0.0512   0.4349   5.3277   6.5823   6.8950   7.2135   8.4809   8.6868
     8.7656   8.7979   9.1263  12.0912  12.7976  12.8140  13.4189  13.6692
    14.0995  14.9261  17.0409  17.8341  19.4638  19.5316  20.3572

          k = 0.0000-0.4330 0.1084 ( 11563 PWs)   bands (ev):

  -197.5334-197.3581-197.3581-143.1873-143.1873-137.0146-136.9901-136.9875
  -136.8389-136.8376-136.8079-136.8057-136.8045-136.8040 -81.2147 -81.2147
   -81.2147 -81.2147 -81.2092 -81.2092 -37.1899 -37.1831 -37.1822 -37.1603
   -37.1561 -37.0012 -36.9987 -36.9910 -36.9902 -36.9886 -36.9875 -36.9656
   -36.9595 -36.9587 -36.9579 -12.5046 -12.4993 -12.4852 -12.4792 -12.4767
   -12.4717 -12.4680 -12.4657 -12.4653 -12.4622  -2.7502  -2.1015  -1.7592
     0.0577   0.4787   5.3789   6.6492   7.1862   7.2656   8.4005   8.7108
     8.8139   8.8396   9.0092  12.2599  12.7877  12.9487  13.3845  13.6424
    14.1752  14.6722  17.0318  17.9513  19.1195  19.2930  19.9879

          k = 0.0000-0.4041 0.1011 ( 11554 PWs)   bands (ev):

  -197.5334-197.3581-197.3581-143.1873-143.1873-137.0150-136.9889-136.9872
  -136.8394-136.8379-136.8071-136.8042-136.8042-136.8036 -81.2147 -81.2147
   -81.2147 -81.2147 -81.2092 -81.2092 -37.1902 -37.1832 -37.1818 -37.1579
   -37.1553 -37.0018 -36.9990 -36.9911 -36.9904 -36.9885 -36.9862 -36.9631
   -36.9580 -36.9572 -36.9572 -12.5036 -12.4985 -12.4844 -12.4785 -12.4767
   -12.4725 -12.4693 -12.4664 -12.4663 -12.4633  -2.8672  -2.1689  -1.7870
     0.1652   0.5353   5.4744   6.7248   7.3280   7.5043   8.2705   8.7438
     8.8702   8.8857   8.9644  12.3592  12.7737  13.1337  13.3335  13.6084
    14.2384  14.4355  17.0287  18.0670  18.7761  19.1254  19.6248

          k = 0.0000-0.3753 0.0939 ( 11543 PWs)   bands (ev):

  -197.5334-197.3581-197.3581-143.1873-143.1873-137.0150-136.9881-136.9867
  -136.8388-136.8384-136.8064-136.8040-136.8033-136.8029 -81.2147 -81.2147
   -81.2147 -81.2147 -81.2092 -81.2092 -37.1900 -37.1830 -37.1809 -37.1569
   -37.1537 -37.0017 -36.9988 -36.9910 -36.9885 -36.9881 -36.9860 -36.9615
   -36.9570 -36.9568 -36.9554 -12.5024 -12.4977 -12.4835 -12.4777 -12.4769
   -12.4735 -12.4707 -12.4675 -12.4667 -12.4645  -2.9847  -2.2393  -1.8234
     0.2603   0.6096   5.6148   6.8106   7.4006   7.8374   8.1143   8.7840
     8.9335   8.9351   8.9784  12.4052  12.7536  13.2357  13.3350  13.5686
    14.1127  14.4338  17.0284  18.1207  18.5304  19.0090  19.2745

          k = 0.0000-0.3464 0.0867 ( 11536 PWs)   bands (ev):

  -197.5334-197.3581-197.3581-143.1873-143.1873-137.0147-136.9880-136.9862
  -136.8389-136.8379-136.8063-136.8033-136.8031-136.8026 -81.2147 -81.2147
   -81.2147 -81.2147 -81.2092 -81.2092 -37.1893 -37.1829 -37.1805 -37.1551
   -37.1542 -37.0006 -36.9984 -36.9904 -36.9885 -36.9876 -36.9863 -36.9597
   -36.9579 -36.9553 -36.9549 -12.5012 -12.4968 -12.4824 -12.4775 -12.4769
   -12.4749 -12.4718 -12.4688 -12.4670 -12.4658  -3.1001  -2.3087  -1.8687
     0.3364   0.7032   5.7983   6.9065   7.4824   7.9589   8.1698   8.8308
     8.9873   9.0060   9.0351  12.4147  12.7242  13.1141  13.4134  13.5248
    13.9975  14.5554  17.0232  17.9817  18.5189  18.9438  18.9533

          k = 0.0000-0.3175 0.0795 ( 11535 PWs)   bands (ev):

  -197.5334-197.3581-197.3581-143.1873-143.1873-137.0152-136.9876-136.9859
  -136.8392-136.8384-136.8055-136.8033-136.8032-136.8020 -81.2147 -81.2147
   -81.2147 -81.2147 -81.2092 -81.2092 -37.1895 -37.1826 -37.1813 -37.1543
   -37.1534 -37.0013 -36.9979 -36.9903 -36.9896 -36.9881 -36.9862 -36.9579
   -36.9564 -36.9552 -36.9551 -12.5000 -12.4959 -12.4813 -12.4787 -12.4764
   -12.4761 -12.4724 -12.4700 -12.4672 -12.4671  -3.2112  -2.3745  -1.9219
     0.3950   0.8107   6.0222   7.0112   7.5726   7.8213   8.4715   8.8820
     9.0418   9.1082   9.1226  12.3909  12.6822  12.9175  13.3603  13.4801
    14.0380  14.7026  16.9938  17.7829  18.6110  18.6366  18.9698

          k = 0.0000-0.2887 0.0722 ( 11537 PWs)   bands (ev):

  -197.5334-197.3581-197.3581-143.1873-143.1873-137.0150-136.9876-136.9862
  -136.8390-136.8383-136.8055-136.8033-136.8032-136.8024 -81.2147 -81.2147
   -81.2147 -81.2147 -81.2092 -81.2092 -37.1883 -37.1833 -37.1819 -37.1548
   -37.1534 -37.0000 -36.9967 -36.9910 -36.9904 -36.9888 -36.9868 -36.9580
   -36.9567 -36.9560 -36.9547 -12.4989 -12.4951 -12.4804 -12.4801 -12.4782
   -12.4754 -12.4726 -12.4711 -12.4685 -12.4672  -3.3166  -2.4347  -1.9817
     0.4420   0.9229   6.2823   7.1230   7.6699   7.7123   8.6955   8.9345
     9.0992   9.2093   9.3020  12.3278  12.6244  12.6700  13.2760  13.4384
    14.1157  14.8677  16.9127  17.6539  18.3568  18.6698  19.0656

          k = 0.0000-0.2598 0.0650 ( 11548 PWs)   bands (ev):

  -197.5334-197.3581-197.3581-143.1873-143.1873-137.0163-136.9874-136.9863
  -136.8402-136.8397-136.8046-136.8038-136.8037-136.8023 -81.2147 -81.2147
   -81.2147 -81.2147 -81.2092 -81.2092 -37.1897 -37.1841 -37.1838 -37.1545
   -37.1530 -37.0007 -36.9990 -36.9923 -36.9915 -36.9895 -36.9893 -36.9569
   -36.9564 -36.9563 -36.9542 -12.4977 -12.4943 -12.4822 -12.4802 -12.4789
   -12.4750 -12.4724 -12.4718 -12.4698 -12.4672  -3.4147  -2.4881  -2.0462
     0.4824   1.0317   6.5725   7.2384   7.6413   7.7736   8.8252   8.9843
     9.1612   9.3180   9.5603  12.2088  12.4298  12.5489  13.2083  13.4033
    14.1419  15.0486  16.7764  17.6167  18.1085  18.6336  19.0314

          k = 0.0000-0.2309 0.0578 ( 11541 PWs)   bands (ev):

  -197.5334-197.3581-197.3581-143.1873-143.1873-137.0160-136.9869-136.9862
  -136.8399-136.8394-136.8038-136.8037-136.8033-136.8021 -81.2147 -81.2147
   -81.2147 -81.2147 -81.2092 -81.2092 -37.1886 -37.1840 -37.1837 -37.1532
   -37.1528 -36.9995 -36.9981 -36.9916 -36.9915 -36.9898 -36.9890 -36.9561
   -36.9553 -36.9548 -36.9548 -12.4967 -12.4935 -12.4840 -12.4821 -12.4779
   -12.4753 -12.4722 -12.4719 -12.4708 -12.4672  -3.5046  -2.5337  -2.1134
     0.5195   1.1314   6.8855   7.3494   7.6224   7.8821   8.8966   9.0268
     9.2294   9.4389   9.8250  12.0421  12.2390  12.4566  13.1598  13.3765
    14.0856  15.2434  16.6204  17.6438  17.8948  18.5190  18.9702

          k = 0.0000-0.2021 0.0506 ( 11534 PWs)   bands (ev):

  -197.5334-197.3581-197.3581-143.1873-143.1873-137.0156-136.9866-136.9860
  -136.8394-136.8390-136.8038-136.8031-136.8027-136.8022 -81.2147 -81.2147
   -81.2147 -81.2147 -81.2092 -81.2092 -37.1879 -37.1834 -37.1830 -37.1528
   -37.1523 -36.9990 -36.9969 -36.9910 -36.9900 -36.9892 -36.9890 -36.9560
   -36.9551 -36.9550 -36.9532 -12.4958 -12.4929 -12.4859 -12.4839 -12.4774
   -12.4758 -12.4722 -12.4718 -12.4707 -12.4671  -3.5856  -2.5710  -2.1816
     0.5548   1.2182   7.2026   7.4477   7.6773   7.9936   8.9368   9.0589
     9.3044   9.5722  10.0153  11.9109  12.0744  12.3504  13.1255  13.3567
    13.9393  15.4499  16.4790  17.7041  17.7186  18.3846  18.8758

          k = 0.0000-0.1732 0.0433 ( 11538 PWs)   bands (ev):

  -197.5334-197.3581-197.3581-143.1873-143.1873-137.0153-136.9867-136.9863
  -136.8392-136.8387-136.8043-136.8038-136.8026-136.8022 -81.2147 -81.2147
   -81.2147 -81.2147 -81.2092 -81.2092 -37.1882 -37.1836 -37.1817 -37.1540
   -37.1524 -36.9996 -36.9968 -36.9917 -36.9902 -36.9889 -36.9868 -36.9586
   -36.9550 -36.9544 -36.9539 -12.4950 -12.4923 -12.4876 -12.4857 -12.4778
   -12.4758 -12.4726 -12.4715 -12.4700 -12.4671  -3.6568  -2.5995  -2.2489
     0.5886   1.2903   7.4458   7.5831   7.8258   8.1053   8.9577   9.0779
     9.3841   9.7177  10.0622  11.8222  11.9926  12.2350  13.0973  13.3429
    13.7136  15.6648  16.3719  17.5820  17.7781  18.2514  18.6770

          k = 0.0000-0.1443 0.0361 ( 11518 PWs)   bands (ev):

  -197.5334-197.3581-197.3581-143.1873-143.1873-137.0149-136.9863-136.9846
  -136.8387-136.8383-136.8037-136.8023-136.8022-136.8004 -81.2147 -81.2147
   -81.2147 -81.2147 -81.2092 -81.2092 -37.1869 -37.1832 -37.1802 -37.1520
   -37.1501 -36.9979 -36.9959 -36.9913 -36.9887 -36.9883 -36.9850 -36.9565
   -36.9530 -36.9518 -36.9517 -12.4943 -12.4919 -12.4891 -12.4872 -12.4786
   -12.4761 -12.4723 -12.4712 -12.4692 -12.4671  -3.7179  -2.6190  -2.3135
     0.6207   1.3471   7.5656   7.7708   8.0883   8.2159   8.9679   9.0845
     9.4658   9.8756   9.9602  11.6480  12.1182  12.1204  13.0647  13.3332
    13.4402  15.8838  16.3064  17.4861  17.8462  18.1247  18.4171

          k = 0.0000-0.1155 0.0289 ( 11530 PWs)   bands (ev):

  -197.5334-197.3581-197.3581-143.1873-143.1873-137.0150-136.9865-136.9854
  -136.8388-136.8385-136.8040-136.8037-136.8024-136.8005 -81.2147 -81.2147
   -81.2147 -81.2147 -81.2092 -81.2092 -37.1882 -37.1828 -37.1806 -37.1535
   -37.1510 -36.9992 -36.9974 -36.9908 -36.9893 -36.9879 -36.9849 -36.9585
   -36.9546 -36.9529 -36.9516 -12.4938 -12.4915 -12.4904 -12.4885 -12.4793
   -12.4766 -12.4717 -12.4709 -12.4685 -12.4670  -3.7683  -2.6296  -2.3739
     0.6501   1.3892   7.6839   7.9209   8.3214   8.3963   8.9830   9.0789
     9.5444   9.7684  10.0452  11.4454  12.0059  12.3092  12.9925  13.2062
    13.3259  16.0935  16.2868  17.4296  17.8559  18.0194  18.2018

          k = 0.0000-0.0866 0.0217 ( 11540 PWs)   bands (ev):

  -197.5334-197.3581-197.3581-143.1873-143.1873-137.0154-136.9865-136.9861
  -136.8393-136.8389-136.8042-136.8041-136.8021-136.8015 -81.2147 -81.2147
   -81.2147 -81.2147 -81.2092 -81.2092 -37.1887 -37.1832 -37.1817 -37.1528
   -37.1527 -37.0001 -36.9975 -36.9914 -36.9898 -36.9882 -36.9866 -36.9582
   -36.9563 -36.9536 -36.9518 -12.4934 -12.4915 -12.4913 -12.4896 -12.4799
   -12.4770 -12.4712 -12.4706 -12.4679 -12.4670  -3.8079  -2.6315  -2.4285
     0.6753   1.4185   7.8252   8.0496   8.4178   8.6203   9.0598   9.0633
     9.5581   9.6149  10.2248  11.2358  11.9066  12.3402  12.9287  13.1300
    13.3203  16.2164  16.3737  17.4090  17.7466  17.9071  18.1380

          k = 0.0000-0.0577 0.0144 ( 11554 PWs)   bands (ev):

  -197.5334-197.3581-197.3581-143.1873-143.1873-137.0161-136.9869-136.9865
  -136.8399-136.8395-136.8049-136.8040-136.8024-136.8024 -81.2147 -81.2147
   -81.2147 -81.2147 -81.2092 -81.2092 -37.1897 -37.1839 -37.1832 -37.1542
   -37.1526 -37.0008 -36.9988 -36.9917 -36.9906 -36.9892 -36.9889 -36.9586
   -36.9562 -36.9544 -36.9535 -12.4931 -12.4923 -12.4911 -12.4904 -12.4803
   -12.4774 -12.4707 -12.4705 -12.4674 -12.4670  -3.8363  -2.6259  -2.4753
     0.6949   1.4370   7.9853   8.1574   8.4988   8.6687   9.0415   9.1547
     9.4705   9.6716  10.4085  11.0309  11.8278  12.1160  13.0018  13.1608
    13.3161  16.2364  16.5587  17.4160  17.6057  17.7724  18.1616

          k = 0.0000-0.0289 0.0072 ( 11549 PWs)   bands (ev):

  -197.5334-197.3581-197.3581-143.1873-143.1873-137.0162-136.9864-136.9862
  -136.8401-136.8396-136.8034-136.8032-136.8028-136.8027 -81.2147 -81.2147
   -81.2147 -81.2147 -81.2092 -81.2092 -37.1894 -37.1837 -37.1835 -37.1526
   -37.1523 -37.0018 -36.9971 -36.9914 -36.9914 -36.9891 -36.9889 -36.9553
   -36.9549 -36.9545 -36.9544 -12.4930 -12.4928 -12.4910 -12.4908 -12.4806
   -12.4776 -12.4704 -12.4703 -12.4671 -12.4670  -3.8534  -2.6157  -2.5104
     0.7074   1.4471   8.1443   8.2329   8.5554   8.6219   9.0215   9.0664
     9.6280   9.7085  10.5746  10.8552  11.7771  11.8686  13.0262  13.2639
    13.3132  16.2392  16.7220  17.4352  17.4943  17.6641  18.1859

          k = 0.0000 0.0000 0.0000 ( 11517 PWs)   bands (ev):

  -197.5334-197.3581-197.3581-143.1873-143.1873-137.0150-136.9850-136.9850
  -136.8394-136.8380-136.8033-136.8033-136.8001-136.8001 -81.2147 -81.2147
   -81.2147 -81.2147 -81.2092 -81.2092 -37.1887 -37.1804 -37.1803 -37.1503
   -37.1502 -36.9993 -36.9983 -36.9894 -36.9893 -36.9845 -36.9845 -36.9553
   -36.9553 -36.9499 -36.9499 -12.4929 -12.4929 -12.4910 -12.4910 -12.4807
   -12.4777 -12.4703 -12.4703 -12.4670 -12.4670  -3.8590  -2.6094  -2.5251
     0.7117   1.4504   8.2380   8.2518   8.5774   8.5774   9.0128   9.0128
     9.7223   9.7224  10.6588  10.7692  11.7596  11.7596  13.0291  13.3131
    13.3131  16.2389  16.7935  17.4462  17.4462  17.6223  18.1951

          k =-0.0250-0.0144 0.0036 ( 11548 PWs)   bands (ev):

  -197.5334-197.3581-197.3581-143.1873-143.1873-137.0161-136.9864-136.9862
  -136.8401-136.8393-136.8034-136.8033-136.8028-136.8026 -81.2147 -81.2147
   -81.2147 -81.2147 -81.2092 -81.2092 -37.1893 -37.1839 -37.1830 -37.1525
   -37.1524 -37.0012 -36.9974 -36.9915 -36.9913 -36.9894 -36.9879 -36.9553
   -36.9553 -36.9545 -36.9541 -12.4930 -12.4928 -12.4910 -12.4908 -12.4806
   -12.4776 -12.4704 -12.4703 -12.4671 -12.4670  -3.8536  -2.6077  -2.5186
     0.7092   1.4456   8.1589   8.2150   8.5532   8.6288   9.0294   9.0575
     9.6371   9.6994  10.5693  10.8601  11.7872  11.8576  13.0283  13.2723
    13.3044  16.2399  16.7219  17.4494  17.4812  17.6621  18.2102

          k =-0.0500-0.0289 0.0072 ( 11551 PWs)   bands (ev):

  -197.5334-197.3581-197.3581-143.1873-143.1873-137.0160-136.9868-136.9863
  -136.8401-136.8393-136.8048-136.8035-136.8025-136.8023 -81.2147 -81.2147
   -81.2147 -81.2147 -81.2092 -81.2092 -37.1895 -37.1835 -37.1832 -37.1545
   -37.1517 -37.0009 -36.9986 -36.9913 -36.9911 -36.9889 -36.9884 -36.9588
   -36.9548 -36.9548 -36.9531 -12.4931 -12.4923 -12.4911 -12.4904 -12.4803
   -12.4774 -12.4707 -12.4704 -12.4674 -12.4670  -3.8370  -2.6021  -2.4998
     0.7016   1.4315   8.0072   8.1133   8.4934   8.7091   9.0683   9.1465
     9.4756   9.6384  10.3653  11.0710  11.8657  12.0823  13.0305  13.1608
    13.2815  16.2295  16.5673  17.4622  17.5437  17.7759  18.2636

          k =-0.0750-0.0433 0.0108 ( 11534 PWs)   bands (ev):

  -197.5334-197.3581-197.3581-143.1873-143.1873-137.0153-136.9860-136.9860
  -136.8393-136.8386-136.8042-136.8034-136.8021-136.8011 -81.2147 -81.2147
   -81.2147 -81.2147 -81.2092 -81.2092 -37.1888 -37.1821 -37.1815 -37.1523
   -37.1522 -37.0005 -36.9974 -36.9895 -36.9892 -36.9878 -36.9869 -36.9571
   -36.9559 -36.9530 -36.9520 -12.4934 -12.4915 -12.4913 -12.4896 -12.4799
   -12.4770 -12.4712 -12.4706 -12.4679 -12.4670  -3.8095  -2.5915  -2.4699
     0.6884   1.4079   7.8358   7.9821   8.4119   8.7108   9.1113   9.1559
     9.4556   9.5523  10.1248  11.3274  11.9839  12.3305  13.0013  13.0524
    13.2460  16.1516  16.4424  17.4892  17.5976  17.9417  18.3507

          k =-0.1000-0.0577 0.0144 ( 11533 PWs)   bands (ev):

  -197.5334-197.3581-197.3581-143.1873-143.1873-137.0153-136.9862-136.9859
  -136.8396-136.8383-136.8038-136.8036-136.8023-136.8013 -81.2147 -81.2147
   -81.2147 -81.2147 -81.2092 -81.2092 -37.1880 -37.1827 -37.1820 -37.1532
   -37.1513 -36.9996 -36.9967 -36.9902 -36.9893 -36.9882 -36.9879 -36.9579
   -36.9547 -36.9529 -36.9523 -12.4938 -12.4915 -12.4904 -12.4885 -12.4793
   -12.4766 -12.4717 -12.4709 -12.4685 -12.4670  -3.7712  -2.5751  -2.4305
     0.6692   1.3750   7.6616   7.8389   8.3190   8.5404   9.1363   9.1601
     9.4640   9.5891   9.8824  11.5924  12.1259  12.4822  12.8617  13.1303
    13.2027  15.9697  16.4130  17.5357  17.6549  18.1182  18.4665

          k =-0.1250-0.0722 0.0181 ( 11515 PWs)   bands (ev):

  -197.5334-197.3581-197.3581-143.1873-143.1873-137.0151-136.9859-136.9845
  -136.8393-136.8382-136.8032-136.8025-136.8020-136.7999 -81.2147 -81.2147
   -81.2147 -81.2147 -81.2092 -81.2092 -37.1868 -37.1821 -37.1817 -37.1510
   -37.1499 -36.9981 -36.9957 -36.9902 -36.9890 -36.9876 -36.9874 -36.9555
   -36.9531 -36.9510 -36.9508 -12.4943 -12.4919 -12.4891 -12.4872 -12.4786
   -12.4761 -12.4723 -12.4712 -12.4692 -12.4671  -3.7222  -2.5526  -2.3824
     0.6430   1.3329   7.4921   7.6911   8.2213   8.2718   9.1106   9.2075
     9.4113   9.6574   9.7478  11.8427  12.2757  12.4179  12.8171  13.1607
    13.3208  15.7495  16.4334  17.6063  17.7329  18.2667  18.6113

          k =-0.1500-0.0866 0.0217 ( 11512 PWs)   bands (ev):

  -197.5334-197.3581-197.3581-143.1873-143.1873-137.0145-136.9855-136.9853
  -136.8388-136.8375-136.8029-136.8025-136.8016-136.8015 -81.2147 -81.2147
   -81.2147 -81.2147 -81.2092 -81.2092 -37.1868 -37.1810 -37.1810 -37.1516
   -37.1507 -36.9982 -36.9955 -36.9894 -36.9887 -36.9866 -36.9859 -36.9552
   -36.9544 -36.9533 -36.9507 -12.4950 -12.4923 -12.4876 -12.4856 -12.4778
   -12.4759 -12.4726 -12.4715 -12.4700 -12.4671  -3.6628  -2.5243  -2.3264
     0.6090   1.2818   7.3285   7.5398   7.9850   8.1216   9.0220   9.2051
     9.4112   9.5087   9.8873  12.0113  12.2988  12.4106  12.8178  13.1364
    13.5762  15.5273  16.4837  17.7042  17.8364  18.3867  18.5456

          k =-0.1750-0.1010 0.0253 ( 11516 PWs)   bands (ev):

  -197.5334-197.3581-197.3581-143.1873-143.1873-137.0145-136.9861-136.9854
  -136.8385-136.8377-136.8030-136.8027-136.8027-136.8016 -81.2147 -81.2147
   -81.2147 -81.2147 -81.2092 -81.2092 -37.1869 -37.1812 -37.1810 -37.1523
   -37.1517 -36.9986 -36.9957 -36.9896 -36.9884 -36.9870 -36.9859 -36.9556
   -36.9542 -36.9537 -36.9534 -12.4958 -12.4929 -12.4859 -12.4839 -12.4774
   -12.4759 -12.4722 -12.4718 -12.4707 -12.4671  -3.5932  -2.4906  -2.2633
     0.5659   1.2224   7.1643   7.3851   7.7206   8.0223   8.9011   9.0722
     9.4359   9.4946   9.9957  11.9464  12.3506  12.5006  12.8592  13.1560
    13.8351  15.3159  16.5647  17.8302  17.9501  18.3457  18.5166

          k =-0.2000-0.1155 0.0289 ( 11516 PWs)   bands (ev):

  -197.5334-197.3581-197.3581-143.1873-143.1873-137.0143-136.9864-136.9855
  -136.8387-136.8372-136.8032-136.8030-136.8029-136.8015 -81.2147 -81.2147
   -81.2147 -81.2147 -81.2092 -81.2092 -37.1868 -37.1812 -37.1807 -37.1532
   -37.1516 -36.9988 -36.9952 -36.9899 -36.9894 -36.9861 -36.9850 -36.9569
   -36.9542 -36.9539 -36.9534 -12.4967 -12.4936 -12.4840 -12.4821 -12.4779
   -12.4754 -12.4721 -12.4719 -12.4707 -12.4672  -3.5140  -2.4521  -2.1942
     0.5131   1.1553   6.9803   7.2350   7.5053   7.9252   8.7714   8.8840
     9.4666   9.5338  10.0554  11.8121  12.4087  12.5235  12.9801  13.2386
    14.0705  15.1211  16.6775  17.9464  17.9856  18.2786  18.6377

          k =-0.2250-0.1299 0.0325 ( 11523 PWs)   bands (ev):

  -197.5334-197.3581-197.3581-143.1873-143.1873-137.0144-136.9869-136.9858
  -136.8391-136.8370-136.8041-136.8032-136.8031-136.8018 -81.2147 -81.2147
   -81.2147 -81.2147 -81.2092 -81.2092 -37.1877 -37.1812 -37.1809 -37.1537
   -37.1527 -37.0002 -36.9957 -36.9905 -36.9890 -36.9859 -36.9853 -36.9566
   -36.9555 -36.9551 -36.9545 -12.4977 -12.4943 -12.4822 -12.4801 -12.4790
   -12.4750 -12.4724 -12.4718 -12.4698 -12.4672  -3.4256  -2.4095  -2.1200
     0.4499   1.0815   6.7579   7.1125   7.3438   7.8318   8.6423   8.6919
     9.4959   9.5650  10.0580  11.7148  12.4109  12.4915  13.1591  13.3707
    14.2698  14.9475  16.8162  17.7460  18.1697  18.4276  18.7742

          k =-0.2500-0.1443 0.0361 ( 11531 PWs)   bands (ev):

  -197.5334-197.3581-197.3581-143.1873-143.1873-137.0147-136.9873-136.9860
  -136.8390-136.8377-136.8050-136.8036-136.8031-136.8019 -81.2147 -81.2147
   -81.2147 -81.2147 -81.2092 -81.2092 -37.1886 -37.1815 -37.1814 -37.1546
   -37.1532 -37.0010 -36.9965 -36.9901 -36.9890 -36.9869 -36.9863 -36.9582
   -36.9563 -36.9554 -36.9547 -12.4989 -12.4951 -12.4804 -12.4801 -12.4782
   -12.4753 -12.4725 -12.4712 -12.4685 -12.4672  -3.3286  -2.3639  -2.0425
     0.3765   1.0022   6.5105   7.0266   7.2209   7.7433   8.5065   8.5185
     9.5217   9.5589  10.0223  11.6611  12.4008  12.4300  13.3486  13.5253
    14.4269  14.7986  16.9535  17.5372  18.3811  18.6396  18.9282

          k =-0.2750-0.1588 0.0397 ( 11542 PWs)   bands (ev):

  -197.5334-197.3581-197.3581-143.1873-143.1873-137.0147-136.9880-136.9867
  -136.8391-136.8376-136.8064-136.8039-136.8030-136.8029 -81.2147 -81.2147
   -81.2147 -81.2147 -81.2092 -81.2092 -37.1892 -37.1818 -37.1815 -37.1566
   -37.1541 -37.0016 -36.9970 -36.9906 -36.9897 -36.9872 -36.9857 -36.9606
   -36.9576 -36.9572 -36.9552 -12.5001 -12.4959 -12.4813 -12.4787 -12.4764
   -12.4760 -12.4724 -12.4701 -12.4671 -12.4671  -3.2240  -2.3161  -1.9635
     0.2941   0.9182   6.2603   6.9732   7.1236   7.6606   8.3315   8.4018
     9.4860   9.5435   9.9904  11.6298  12.3560  12.4110  13.5205  13.6838
    14.5388  14.6804  16.9810  17.4670  18.6191  18.8736  19.1047

          k =-0.3000-0.1732 0.0433 ( 11540 PWs)   bands (ev):

  -197.5334-197.3581-197.3581-143.1873-143.1873-137.0149-136.9880-136.9863
  -136.8397-136.8374-136.8063-136.8036-136.8031-136.8025 -81.2147 -81.2147
   -81.2147 -81.2147 -81.2092 -81.2092 -37.1899 -37.1817 -37.1811 -37.1562
   -37.1539 -37.0021 -36.9979 -36.9915 -36.9884 -36.9871 -36.9854 -36.9595
   -36.9573 -36.9571 -36.9548 -12.5013 -12.4968 -12.4825 -12.4775 -12.4768
   -12.4748 -12.4718 -12.4689 -12.4670 -12.4657  -3.1126  -2.2673  -1.8858
     0.2054   0.8306   6.0208   6.9479   7.0461   7.5849   8.1678   8.2950
     9.3423   9.5624   9.9883  11.5956  12.2794  12.4594  13.6589  13.8366
    14.5614  14.6423  16.8287  17.6117  18.8819  19.1151  19.3101

          k =-0.3250-0.1876 0.0470 ( 11546 PWs)   bands (ev):

  -197.5334-197.3581-197.3581-143.1873-143.1873-137.0146-136.9889-136.9865
  -136.8393-136.8371-136.8070-136.8043-136.8037-136.8028 -81.2147 -81.2147
   -81.2147 -81.2147 -81.2092 -81.2092 -37.1899 -37.1822 -37.1805 -37.1576
   -37.1549 -37.0022 -36.9979 -36.9916 -36.9880 -36.9864 -36.9860 -36.9610
   -36.9587 -36.9576 -36.9565 -12.5025 -12.4977 -12.4836 -12.4776 -12.4768
   -12.4736 -12.4707 -12.4676 -12.4667 -12.4644  -2.9961  -2.2187  -1.8127
     0.1143   0.7399   5.7989   6.9475   6.9867   7.5165   8.0171   8.1987
     9.1531   9.5773  10.0072  11.5472  12.2048  12.5463  13.7565  13.9772
    14.5068  14.6767  16.6283  17.8429  19.1671  19.3562  19.5455

          k =-0.3500-0.2021 0.0506 ( 11551 PWs)   bands (ev):

  -197.5334-197.3581-197.3581-143.1873-143.1873-137.0145-136.9894-136.9868
  -136.8384-136.8378-136.8074-136.8049-136.8039-136.8030 -81.2147 -81.2147
   -81.2147 -81.2147 -81.2092 -81.2092 -37.1900 -37.1819 -37.1811 -37.1583
   -37.1555 -37.0014 -36.9988 -36.9901 -36.9879 -36.9875 -36.9873 -36.9626
   -36.9587 -36.9578 -36.9576 -12.5036 -12.4985 -12.4845 -12.4784 -12.4766
   -12.4725 -12.4694 -12.4665 -12.4663 -12.4632  -2.8764  -2.1711  -1.7489
     0.0265   0.6473   5.5996   6.9393   6.9741   7.4560   7.8799   8.1137
     8.9441   9.5892  10.0357  11.4870  12.1354  12.6628  13.8111  14.1023
    14.4685  14.6911  16.4355  18.1048  19.4724  19.5998  19.7985

          k =-0.3750-0.2165 0.0542 ( 11556 PWs)   bands (ev):

  -197.5334-197.3581-197.3581-143.1873-143.1873-137.0151-136.9896-136.9866
  -136.8390-136.8384-136.8071-136.8055-136.8037-136.8030 -81.2147 -81.2147
   -81.2147 -81.2147 -81.2092 -81.2092 -37.1911 -37.1831 -37.1810 -37.1590
   -37.1546 -37.0015 -37.0008 -36.9918 -36.9885 -36.9877 -36.9867 -36.9633
   -36.9593 -36.9580 -36.9556 -12.5047 -12.4992 -12.4853 -12.4790 -12.4766
   -12.4717 -12.4680 -12.4657 -12.4654 -12.4621  -2.7562  -2.1254  -1.6997
    -0.0513   0.5540   5.4260   6.9105   7.0180   7.4042   7.7579   8.0410
     8.7300   9.5986  10.0659  11.4217  12.0737  12.7969  13.8304  14.2098
    14.4447  14.6833  16.2659  18.3826  19.7932  19.8503  20.0463

          k =-0.4000-0.2309 0.0578 ( 11556 PWs)   bands (ev):

  -197.5334-197.3581-197.3581-143.1873-143.1873-137.0146-136.9899-136.9868
  -136.8385-136.8379-136.8075-136.8058-136.8039-136.8032 -81.2147 -81.2147
   -81.2147 -81.2147 -81.2092 -81.2092 -37.1918 -37.1816 -37.1801 -37.1605
   -37.1549 -37.0026 -37.0011 -36.9899 -36.9878 -36.9867 -36.9856 -36.9641
   -36.9616 -36.9580 -36.9563 -12.5056 -12.4999 -12.4860 -12.4796 -12.4767
   -12.4712 -12.4668 -12.4650 -12.4645 -12.4611  -2.6398  -2.0820  -1.6706
    -0.1121   0.4625   5.2807   6.8940   7.0806   7.3612   7.6532   7.9807
     8.5212   9.6057  10.0954  11.3587  12.0215  12.9395  13.8247  14.2981
    14.4281  14.6562  16.1260  18.6672  20.1030  20.1226  20.2454

          k =-0.4250-0.2454 0.0614 ( 11551 PWs)   bands (ev):

  -197.5334-197.3581-197.3581-143.1873-143.1873-137.0146-136.9895-136.9867
  -136.8383-136.8380-136.8070-136.8055-136.8037-136.8032 -81.2147 -81.2147
   -81.2147 -81.2147 -81.2092 -81.2092 -37.1913 -37.1821 -37.1796 -37.1602
   -37.1541 -37.0021 -37.0007 -36.9898 -36.9875 -36.9874 -36.9847 -36.9643
   -36.9608 -36.9570 -36.9560 -12.5063 -12.5004 -12.4865 -12.4800 -12.4768
   -12.4709 -12.4658 -12.4643 -12.4638 -12.4604  -2.5332  -2.0405  -1.6647
    -0.1510   0.3767   5.1653   6.8878   7.1547   7.3276   7.5713   7.9336
     8.3254   9.6107  10.1213  11.3033  11.9796  13.0819  13.7999  14.3671
    14.4163  14.6151  16.0186  18.9502  20.3190  20.3705  20.4417

          k =-0.4500-0.2598 0.0650 ( 11555 PWs)   bands (ev):

  -197.5334-197.3581-197.3581-143.1873-143.1873-137.0143-136.9897-136.9872
  -136.8381-136.8378-136.8069-136.8059-136.8042-136.8036 -81.2147 -81.2147
   -81.2147 -81.2147 -81.2092 -81.2092 -37.1909 -37.1818 -37.1800 -37.1601
   -37.1557 -37.0016 -37.0005 -36.9893 -36.9886 -36.9875 -36.9845 -36.9636
   -36.9613 -36.9588 -36.9573 -12.5069 -12.5008 -12.4869 -12.4804 -12.4769
   -12.4707 -12.4651 -12.4637 -12.4633 -12.4598  -2.4451  -2.0008  -1.6803
    -0.1681   0.3027   5.0819   6.8884   7.2271   7.3032   7.5208   7.8996
     8.1515   9.6138  10.1418  11.2602  11.9489  13.2131  13.7597  14.4129
    14.4161  14.5669  15.9437  19.2142  20.3969  20.5185  20.6408

          k =-0.4750-0.2742 0.0686 ( 11556 PWs)   bands (ev):

  -197.5334-197.3581-197.3581-143.1873-143.1873-137.0145-136.9892-136.9875
  -136.8384-136.8380-136.8065-136.8054-136.8047-136.8038 -81.2147 -81.2147
   -81.2147 -81.2147 -81.2092 -81.2092 -37.1903 -37.1824 -37.1810 -37.1604
   -37.1548 -37.0010 -36.9998 -36.9902 -36.9897 -36.9883 -36.9849 -36.9637
   -36.9619 -36.9579 -36.9562 -12.5073 -12.5011 -12.4871 -12.4806 -12.4770
   -12.4707 -12.4646 -12.4633 -12.4629 -12.4595  -2.3861  -1.9666  -1.7060
    -0.1703   0.2501   5.0313   6.8914   7.2744   7.2884   7.5126   7.8791
     8.0185   9.6157  10.1548  11.2330  11.9302  13.3181  13.7130  14.4208
    14.4454  14.5215  15.9000  19.4270  20.3785  20.6236  20.6978

          k =-0.5000-0.2887 0.0722 ( 11554 PWs)   bands (ev):

  -197.5334-197.3581-197.3581-143.1873-143.1873-137.0146-136.9887-136.9877
  -136.8382-136.8382-136.8060-136.8049-136.8045-136.8043 -81.2147 -81.2147
   -81.2147 -81.2147 -81.2092 -81.2092 -37.1909 -37.1815 -37.1810 -37.1605
   -37.1541 -37.0022 -36.9999 -36.9899 -36.9886 -36.9876 -36.9853 -36.9631
   -36.9627 -36.9578 -36.9550 -12.5074 -12.5012 -12.4872 -12.4806 -12.4770
   -12.4706 -12.4645 -12.4632 -12.4628 -12.4594  -2.3653  -1.9512  -1.7197
    -0.1690   0.2307   5.0146   6.8932   7.2835   7.2874   7.5223   7.8721
     7.9637   9.6164  10.1597  11.2236  11.9240  13.3626  13.6881  14.4298
    14.4553  14.4990  15.8859  19.5163  20.3481  20.6657  20.6983

     Writing output data file ./wfc-out/bi2se3.save/
 
     init_run     :      0.41s CPU      0.48s WALL (       1 calls)
     electrons    :     50.06s CPU     50.77s WALL (       1 calls)

     Called by init_run:
     wfcinit      :      0.00s CPU      0.05s WALL (       1 calls)
     wfcinit:atom :      0.01s CPU      0.01s WALL (      41 calls)
     wfcinit:wfcr :      1.60s CPU      1.63s WALL (      41 calls)
     potinit      :      0.02s CPU      0.02s WALL (       1 calls)
     hinit0       :      0.34s CPU      0.35s WALL (       1 calls)

     Called by electrons:
     c_bands      :     50.05s CPU     50.76s WALL (       1 calls)
     v_of_rho     :      0.01s CPU      0.01s WALL (       1 calls)
     v_h          :      0.00s CPU      0.00s WALL (       1 calls)
     v_xc         :      0.01s CPU      0.01s WALL (       1 calls)

     Called by c_bands:
     init_us_2    :      0.01s CPU      0.02s WALL (      41 calls)
     cegterg      :     44.87s CPU     45.36s WALL (     113 calls)

     Called by sum_band:

     Called by *egterg:
     cdiaghg      :     14.09s CPU     14.14s WALL (    1945 calls)
     cegterg:over :      5.58s CPU      5.60s WALL (    1904 calls)
     cegterg:upda :      2.04s CPU      2.09s WALL (    1904 calls)
     cegterg:last :      3.83s CPU      3.85s WALL (     674 calls)
     h_psi        :     17.94s CPU     18.33s WALL (    2058 calls)
     g_psi        :      0.06s CPU      0.06s WALL (    1904 calls)

     Called by h_psi:
     h_psi:calbec :      2.37s CPU      2.39s WALL (    2058 calls)
     vloc_psi     :     13.96s CPU     14.32s WALL (    2058 calls)
     add_vuspsi   :      1.56s CPU      1.57s WALL (    2058 calls)

     General routines
     calbec       :      2.36s CPU      2.39s WALL (    2058 calls)
     fft          :      0.24s CPU      0.25s WALL (      12 calls)
     ffts         :      0.00s CPU      0.00s WALL (       1 calls)
     fftw         :     13.33s CPU     13.67s WALL (  100636 calls)
     interpolate  :      0.00s CPU      0.00s WALL (       1 calls)
     davcio       :      0.02s CPU      0.10s WALL (      82 calls)
 
     Parallel routines
     fft_scatt_xy :      0.75s CPU      0.77s WALL (  100649 calls)
     fft_scatt_yz :      7.95s CPU      8.15s WALL (  100649 calls)
 
     PWSCF        :     53.16s CPU   1m13.49s WALL

 
   This run was terminated on:  21:39:20   8May2023            

=------------------------------------------------------------------------------=
   JOB DONE.
=------------------------------------------------------------------------------=
