
     Program PWSCF v.6.6 starts on  8May2023 at 21:33:14 

     This program is part of the open-source Quantum ESPRESSO suite
     for quantum simulation of materials; please cite
         "P. Giannozzi et al., J. Phys.:Condens. Matter 21 395502 (2009);
         "P. Giannozzi et al., J. Phys.:Condens. Matter 29 465901 (2017);
          URL http://www.quantum-espresso.org", 
     in publications or presentations arising from this work. More details at
     http://www.quantum-espresso.org/quote

     Parallel version (MPI), running on    64 processors

     MPI processes distributed on     1 nodes
     K-points division:     npool     =       2
     R & G space division:  proc/nbgrp/npool/nimage =      32
     Fft bands division:     nmany     =       1
     Reading input from INCAR-scf.pw

     Current dimensions of program PWSCF are:
     Max number of different atomic species (ntypx) = 10
     Max number of k-points (npk) =  40000
     Max angular momentum in pseudopotentials (lmaxx) =  3

     Subspace diagonalization in iterative solution of the eigenvalue problem:
     a serial algorithm will be used

     Message from routine setup:
     using ibrav=0 with symmetry is DISCOURAGED, use correct ibrav instead
 
     Parallelization info
     --------------------
     sticks:   dense  smooth     PW     G-vecs:    dense   smooth      PW
     Min          63      42     12                 5298     2882     460
     Max          64      43     14                 5309     2894     464
     Sum        2029    1345    397               169655    92305   14773
 


     bravais-lattice index     =            0
     lattice parameter (alat)  =       7.8197  a.u.
     unit-cell volume          =     955.3447 (a.u.)^3
     number of atoms/cell      =            5
     number of atomic types    =            2
     number of electrons       =       118.00
     number of Kohn-Sham states=           71
     kinetic-energy cutoff     =      80.0000  Ry
     charge density cutoff     =     480.0000  Ry
     convergence threshold     =      3.0E-09
     mixing beta               =       0.7000
     number of iterations used =            8  plain     mixing
     Exchange-correlation= PBESOL
                           (   1   4  10   8   0   0   0)

     celldm(1)=   7.819688  celldm(2)=   0.000000  celldm(3)=   0.000000
     celldm(4)=   0.000000  celldm(5)=   0.000000  celldm(6)=   0.000000

     crystal axes: (cart. coord. in units of alat)
               a(1) = (  -0.500000  -0.866025   0.000000 )  
               a(2) = (   0.500000  -0.866025   0.000000 )  
               a(3) = (   0.000000   0.577350   2.307072 )  

     reciprocal axes: (cart. coord. in units 2 pi/alat)
               b(1) = ( -1.000000 -0.577350  0.144483 )  
               b(2) = (  1.000000 -0.577350  0.144483 )  
               b(3) = (  0.000000  0.000000  0.433450 )  


     PseudoPot. # 1 for Bi read from file:
     ./Bi.NC.SR.PBEsol.stringent.UPF
     MD5 check sum: 050e5b1909e7018b381bcf2e2e2a9a73
     Pseudo is Norm-conserving + core correction, Zval = 23.0
     Generated using ONCVPSP code by D. R. Hamann
     Using radial grid of 1472 points,  6 beta functions with: 
                l(1) =   0
                l(2) =   0
                l(3) =   1
                l(4) =   1
                l(5) =   2
                l(6) =   2

     PseudoPot. # 2 for Se read from file:
     ./Se.NC.SR.PBEsol.stringent.UPF
     MD5 check sum: 46ad0b39796781f83ed9f18e8cb8a6a4
     Pseudo is Norm-conserving + core correction, Zval = 24.0
     Generated using ONCVPSP code by D. R. Hamann
     Using radial grid of 1198 points,  6 beta functions with: 
                l(1) =   0
                l(2) =   0
                l(3) =   1
                l(4) =   1
                l(5) =   2
                l(6) =   2

     atomic species   valence    mass     pseudopotential
        Bi            23.00   208.98040     Bi( 1.00)
        Se            24.00    78.96000     Se( 1.00)

     12 Sym. Ops., with inversion, found ( 8 have fractional translation)


                                    s                        frac. trans.

      isym =  1     identity                                     

 cryst.   s( 1) = (     1          0          0      )
                  (     0          1          0      )
                  (     0          0          1      )

 cart.    s( 1) = (  1.0000000  0.0000000  0.0000000 )
                  (  0.0000000  1.0000000 -0.0000000 )
                  (  0.0000000  0.0000000  1.0000000 )


      isym =  2     180 deg rotation - cart. axis [1,0,0]        

 cryst.   s( 2) = (     0         -1          0      )
                  (    -1          0          0      )
                  (     0          0         -1      )

 cart.    s( 2) = (  1.0000000  0.0000000  0.0000000 )
                  (  0.0000000 -1.0000000  0.0000000 )
                  (  0.0000000  0.0000000 -1.0000000 )


      isym =  3     120 deg rotation - cryst. axis [0,0,1]       

 cryst.   s( 3) = (    -1          1          0      )    f =(  0.5000000 )
                  (    -1          0          0      )       (  0.0000000 )
                  (     1          0          1      )       (  0.0000000 )

 cart.    s( 3) = ( -0.5000000 -0.8660252 -0.0000001 )    f =( -0.2500000 )
                  (  0.8660256 -0.5000000 -0.0000002 )       ( -0.4330127 )
                  (  0.0000000  0.0000000  1.0000000 )       (  0.0000000 )


      isym =  4     120 deg rotation - cryst. axis [0,0,-1]      

 cryst.   s( 4) = (     0         -1          0      )    f =(  0.0000000 )
                  (     1         -1          0      )       (  0.5000000 )
                  (     0          1          1      )       (  0.0000000 )

 cart.    s( 4) = ( -0.5000000  0.8660252  0.0000001 )    f =(  0.2500000 )
                  ( -0.8660256 -0.5000000 -0.0000002 )       ( -0.4330127 )
                  (  0.0000000  0.0000000  1.0000000 )       (  0.0000000 )


      isym =  5     180 deg rotation - cryst. axis [0,1,0]       

 cryst.   s( 5) = (    -1          1          0      )    f =(  0.0000000 )
                  (     0          1          0      )       ( -0.5000000 )
                  (     0         -1         -1      )       (  0.0000000 )

 cart.    s( 5) = ( -0.5000000 -0.8660252 -0.0000001 )    f =( -0.2500000 )
                  ( -0.8660256  0.5000000  0.0000002 )       (  0.4330127 )
                  (  0.0000000  0.0000000 -1.0000000 )       (  0.0000000 )


      isym =  6     180 deg rotation - cryst. axis [1,1,0]       

 cryst.   s( 6) = (     1          0          0      )    f =( -0.5000000 )
                  (     1         -1          0      )       (  0.0000000 )
                  (    -1          0         -1      )       (  0.0000000 )

 cart.    s( 6) = ( -0.5000000  0.8660252  0.0000001 )    f =(  0.2500000 )
                  (  0.8660256  0.5000000  0.0000002 )       (  0.4330127 )
                  (  0.0000000  0.0000000 -1.0000000 )       (  0.0000000 )


      isym =  7     inversion                                    

 cryst.   s( 7) = (    -1          0          0      )
                  (     0         -1          0      )
                  (     0          0         -1      )

 cart.    s( 7) = ( -1.0000000  0.0000000  0.0000000 )
                  (  0.0000000 -1.0000000  0.0000000 )
                  (  0.0000000  0.0000000 -1.0000000 )


      isym =  8     inv. 180 deg rotation - cart. axis [1,0,0]   

 cryst.   s( 8) = (     0          1          0      )
                  (     1          0          0      )
                  (     0          0          1      )

 cart.    s( 8) = ( -1.0000000  0.0000000  0.0000000 )
                  (  0.0000000  1.0000000 -0.0000000 )
                  (  0.0000000  0.0000000  1.0000000 )


      isym =  9     inv. 120 deg rotation - cryst. axis [0,0,1]  

 cryst.   s( 9) = (     1         -1          0      )    f =( -0.5000000 )
                  (     1          0          0      )       (  0.0000000 )
                  (    -1          0         -1      )       (  0.0000000 )

 cart.    s( 9) = (  0.5000000  0.8660252  0.0000001 )    f =(  0.2500000 )
                  ( -0.8660256  0.5000000  0.0000002 )       (  0.4330127 )
                  (  0.0000000  0.0000000 -1.0000000 )       (  0.0000000 )


      isym = 10     inv. 120 deg rotation - cryst. axis [0,0,-1] 

 cryst.   s(10) = (     0          1          0      )    f =(  0.0000000 )
                  (    -1          1          0      )       ( -0.5000000 )
                  (     0         -1         -1      )       (  0.0000000 )

 cart.    s(10) = (  0.5000000 -0.8660252 -0.0000001 )    f =( -0.2500000 )
                  (  0.8660256  0.5000000  0.0000002 )       (  0.4330127 )
                  (  0.0000000  0.0000000 -1.0000000 )       (  0.0000000 )


      isym = 11     inv. 180 deg rotation - cryst. axis [0,1,0]  

 cryst.   s(11) = (     1         -1          0      )    f =(  0.0000000 )
                  (     0         -1          0      )       (  0.5000000 )
                  (     0          1          1      )       (  0.0000000 )

 cart.    s(11) = (  0.5000000  0.8660252  0.0000001 )    f =(  0.2500000 )
                  (  0.8660256 -0.5000000 -0.0000002 )       ( -0.4330127 )
                  (  0.0000000  0.0000000  1.0000000 )       (  0.0000000 )


      isym = 12     inv. 180 deg rotation - cryst. axis [1,1,0]  

 cryst.   s(12) = (    -1          0          0      )    f =(  0.5000000 )
                  (    -1          1          0      )       (  0.0000000 )
                  (     1          0          1      )       (  0.0000000 )

 cart.    s(12) = (  0.5000000 -0.8660252 -0.0000001 )    f =( -0.2500000 )
                  ( -0.8660256 -0.5000000 -0.0000002 )       ( -0.4330127 )
                  (  0.0000000  0.0000000  1.0000000 )       (  0.0000000 )


   Cartesian axes

     site n.     atom                  positions (alat units)
         1           Bi  tau(   1) = (   0.0000000  -0.2886753   1.6080294  )
         2           Bi  tau(   2) = (   0.0000000  -0.8660255   0.6990429  )
         3           Se  tau(   3) = (   0.0000000   0.2886750   1.1535362  )
         4           Se  tau(   4) = (   0.0000000  -0.2886752   0.2722345  )
         5           Se  tau(   5) = (   0.0000000  -0.8660257   2.0348378  )

   Crystallographic axes

     site n.     atom                  positions (cryst. coord.)
         1           Bi  tau(   1) = (  0.3990000  0.3990000  0.6970000  )
         2           Bi  tau(   2) = (  0.6010000  0.6010000  0.3030000  )
         3           Se  tau(   3) = (  0.0000000  0.0000000  0.5000000  )
         4           Se  tau(   4) = (  0.2060000  0.2060000  0.1180000  )
         5           Se  tau(   5) = (  0.7940000  0.7940000  0.8820000  )

     number of k points=   234  Marzari-Vanderbilt smearing, width (Ry)=  0.0073
                       cart. coord. in units 2pi/alat
        k(    1) = (   0.0000000   0.0000000   0.0000000), wk =   0.0017778
        k(    2) = (   0.0000000   0.0000000   0.0866900), wk =   0.0035556
        k(    3) = (   0.0000000   0.0000000   0.1733799), wk =   0.0035556
        k(    4) = (   0.0666667  -0.0384900   0.0096322), wk =   0.0071111
        k(    5) = (   0.0666667  -0.0384900   0.0963222), wk =   0.0071111
        k(    6) = (   0.0666667  -0.0384900   0.1830121), wk =   0.0071111
        k(    7) = (   0.0666667  -0.0384900  -0.1637477), wk =   0.0071111
        k(    8) = (   0.0666667  -0.0384900  -0.0770577), wk =   0.0071111
        k(    9) = (   0.1333334  -0.0769800   0.0192644), wk =   0.0071111
        k(   10) = (   0.1333334  -0.0769800   0.1059544), wk =   0.0071111
        k(   11) = (   0.1333334  -0.0769800   0.1926443), wk =   0.0071111
        k(   12) = (   0.1333334  -0.0769800  -0.1541155), wk =   0.0071111
        k(   13) = (   0.1333334  -0.0769800  -0.0674255), wk =   0.0071111
        k(   14) = (   0.2000000  -0.1154700   0.0288966), wk =   0.0106667
        k(   15) = (   0.2000000  -0.1154700   0.1155866), wk =   0.0106667
        k(   16) = (   0.2000000  -0.1154700   0.2022766), wk =   0.0106667
        k(   17) = (   0.2000000  -0.1154700  -0.1444833), wk =   0.0106667
        k(   18) = (   0.2000000  -0.1154700  -0.0577933), wk =   0.0106667
        k(   19) = (   0.2666667  -0.1539601   0.0385289), wk =   0.0071111
        k(   20) = (   0.2666667  -0.1539601   0.1252188), wk =   0.0071111
        k(   21) = (   0.2666667  -0.1539601   0.2119088), wk =   0.0071111
        k(   22) = (   0.2666667  -0.1539601  -0.1348511), wk =   0.0071111
        k(   23) = (   0.2666667  -0.1539601  -0.0481611), wk =   0.0071111
        k(   24) = (   0.3333334  -0.1924501   0.0481611), wk =   0.0071111
        k(   25) = (   0.3333334  -0.1924501   0.1348510), wk =   0.0071111
        k(   26) = (   0.3333334  -0.1924501   0.2215410), wk =   0.0071111
        k(   27) = (   0.3333334  -0.1924501  -0.1252188), wk =   0.0071111
        k(   28) = (   0.3333334  -0.1924501  -0.0385289), wk =   0.0071111
        k(   29) = (   0.4000001  -0.2309401   0.0577933), wk =   0.0106667
        k(   30) = (   0.4000001  -0.2309401   0.1444832), wk =   0.0106667
        k(   31) = (   0.4000001  -0.2309401   0.2311732), wk =   0.0106667
        k(   32) = (   0.4000001  -0.2309401  -0.1155866), wk =   0.0106667
        k(   33) = (   0.4000001  -0.2309401  -0.0288967), wk =   0.0106667
        k(   34) = (   0.4666668  -0.2694301   0.0674255), wk =   0.0071111
        k(   35) = (   0.4666668  -0.2694301   0.1541155), wk =   0.0071111
        k(   36) = (   0.4666668  -0.2694301   0.2408054), wk =   0.0071111
        k(   37) = (   0.4666668  -0.2694301  -0.1059544), wk =   0.0071111
        k(   38) = (   0.4666668  -0.2694301  -0.0192645), wk =   0.0071111
        k(   39) = (   0.0000000  -0.0769800   0.0192644), wk =   0.0035556
        k(   40) = (   0.0000000  -0.0769800   0.1059544), wk =   0.0035556
        k(   41) = (   0.0000000  -0.0769800   0.1926443), wk =   0.0035556
        k(   42) = (   0.0000000  -0.0769800  -0.1541155), wk =   0.0035556
        k(   43) = (   0.0000000  -0.0769800  -0.0674255), wk =   0.0035556
        k(   44) = (   0.0666667  -0.1154700   0.0288966), wk =   0.0071111
        k(   45) = (   0.0666667  -0.1154700   0.1155866), wk =   0.0071111
        k(   46) = (   0.0666667  -0.1154700   0.2022766), wk =   0.0071111
        k(   47) = (   0.0666667  -0.1154700  -0.1444833), wk =   0.0071111
        k(   48) = (   0.0666667  -0.1154700  -0.0577933), wk =   0.0071111
        k(   49) = (   0.1333334  -0.1539601   0.0385289), wk =   0.0142222
        k(   50) = (   0.1333334  -0.1539601   0.1252188), wk =   0.0142222
        k(   51) = (   0.1333334  -0.1539601   0.2119088), wk =   0.0142222
        k(   52) = (   0.1333334  -0.1539601  -0.1348511), wk =   0.0142222
        k(   53) = (   0.1333334  -0.1539601  -0.0481611), wk =   0.0142222
        k(   54) = (   0.2000000  -0.1924501   0.0481611), wk =   0.0071111
        k(   55) = (   0.2000000  -0.1924501   0.1348510), wk =   0.0071111
        k(   56) = (   0.2000000  -0.1924501   0.2215410), wk =   0.0071111
        k(   57) = (   0.2000000  -0.1924501  -0.1252188), wk =   0.0071111
        k(   58) = (   0.2000000  -0.1924501  -0.0385289), wk =   0.0071111
        k(   59) = (   0.2666667  -0.2309401   0.0577933), wk =   0.0071111
        k(   60) = (   0.2666667  -0.2309401   0.1444832), wk =   0.0071111
        k(   61) = (   0.2666667  -0.2309401   0.2311732), wk =   0.0071111
        k(   62) = (   0.2666667  -0.2309401  -0.1155866), wk =   0.0071111
        k(   63) = (   0.2666667  -0.2309401  -0.0288967), wk =   0.0071111
        k(   64) = (   0.3333334  -0.2694301   0.0674255), wk =   0.0142222
        k(   65) = (   0.3333334  -0.2694301   0.1541155), wk =   0.0142222
        k(   66) = (   0.3333334  -0.2694301   0.2408054), wk =   0.0142222
        k(   67) = (   0.3333334  -0.2694301  -0.1059544), wk =   0.0142222
        k(   68) = (   0.3333334  -0.2694301  -0.0192645), wk =   0.0142222
        k(   69) = (   0.4000001  -0.3079201   0.0770577), wk =   0.0071111
        k(   70) = (   0.4000001  -0.3079201   0.1637477), wk =   0.0071111
        k(   71) = (   0.4000001  -0.3079201   0.2504376), wk =   0.0071111
        k(   72) = (   0.4000001  -0.3079201  -0.0963222), wk =   0.0071111
        k(   73) = (   0.4000001  -0.3079201  -0.0096322), wk =   0.0071111
        k(   74) = (  -0.5333334   0.2309401  -0.0577933), wk =   0.0071111
        k(   75) = (  -0.5333334   0.2309401   0.0288967), wk =   0.0071111
        k(   76) = (  -0.5333334   0.2309401   0.1155866), wk =   0.0071111
        k(   77) = (  -0.5333334   0.2309401  -0.2311732), wk =   0.0071111
        k(   78) = (  -0.5333334   0.2309401  -0.1444832), wk =   0.0071111
        k(   79) = (  -0.4666668   0.1924501  -0.0481611), wk =   0.0142222
        k(   80) = (  -0.4666668   0.1924501   0.0385289), wk =   0.0142222
        k(   81) = (  -0.4666668   0.1924501   0.1252188), wk =   0.0142222
        k(   82) = (  -0.4666668   0.1924501  -0.2215410), wk =   0.0142222
        k(   83) = (  -0.4666668   0.1924501  -0.1348510), wk =   0.0142222
        k(   84) = (  -0.4000001   0.1539601  -0.0385289), wk =   0.0071111
        k(   85) = (  -0.4000001   0.1539601   0.0481611), wk =   0.0071111
        k(   86) = (  -0.4000001   0.1539601   0.1348511), wk =   0.0071111
        k(   87) = (  -0.4000001   0.1539601  -0.2119088), wk =   0.0071111
        k(   88) = (  -0.4000001   0.1539601  -0.1252188), wk =   0.0071111
        k(   89) = (  -0.3333334   0.1154700  -0.0288966), wk =   0.0071111
        k(   90) = (  -0.3333334   0.1154700   0.0577933), wk =   0.0071111
        k(   91) = (  -0.3333334   0.1154700   0.1444833), wk =   0.0071111
        k(   92) = (  -0.3333334   0.1154700  -0.2022766), wk =   0.0071111
        k(   93) = (  -0.3333334   0.1154700  -0.1155866), wk =   0.0071111
        k(   94) = (  -0.2666667   0.0769800  -0.0192644), wk =   0.0142222
        k(   95) = (  -0.2666667   0.0769800   0.0674255), wk =   0.0142222
        k(   96) = (  -0.2666667   0.0769800   0.1541155), wk =   0.0142222
        k(   97) = (  -0.2666667   0.0769800  -0.1926443), wk =   0.0142222
        k(   98) = (  -0.2666667   0.0769800  -0.1059544), wk =   0.0142222
        k(   99) = (  -0.2000000   0.0384900  -0.0096322), wk =   0.0071111
        k(  100) = (  -0.2000000   0.0384900   0.0770577), wk =   0.0071111
        k(  101) = (  -0.2000000   0.0384900   0.1637477), wk =   0.0071111
        k(  102) = (  -0.2000000   0.0384900  -0.1830121), wk =   0.0071111
        k(  103) = (  -0.2000000   0.0384900  -0.0963222), wk =   0.0071111
        k(  104) = (  -0.1333334  -0.0000000   0.0000000), wk =   0.0035556
        k(  105) = (  -0.1333334  -0.0000000   0.0866900), wk =   0.0071111
        k(  106) = (  -0.1333334  -0.0000000   0.1733799), wk =   0.0071111
        k(  107) = (   0.0000000  -0.1539601   0.0385289), wk =   0.0035556
        k(  108) = (   0.0000000  -0.1539601   0.1252188), wk =   0.0035556
        k(  109) = (   0.0000000  -0.1539601   0.2119088), wk =   0.0035556
        k(  110) = (   0.0000000  -0.1539601  -0.1348511), wk =   0.0035556
        k(  111) = (   0.0000000  -0.1539601  -0.0481611), wk =   0.0035556
        k(  112) = (   0.1333334  -0.2309401   0.0577933), wk =   0.0071111
        k(  113) = (   0.1333334  -0.2309401   0.1444832), wk =   0.0071111
        k(  114) = (   0.1333334  -0.2309401   0.2311732), wk =   0.0071111
        k(  115) = (   0.1333334  -0.2309401  -0.1155866), wk =   0.0071111
        k(  116) = (   0.1333334  -0.2309401  -0.0288967), wk =   0.0071111
        k(  117) = (   0.2000000  -0.2694301   0.0674255), wk =   0.0071111
        k(  118) = (   0.2000000  -0.2694301   0.1541155), wk =   0.0071111
        k(  119) = (   0.2000000  -0.2694301   0.2408054), wk =   0.0071111
        k(  120) = (   0.2000000  -0.2694301  -0.1059544), wk =   0.0071111
        k(  121) = (   0.2000000  -0.2694301  -0.0192645), wk =   0.0071111
        k(  122) = (   0.2666667  -0.3079201   0.0770577), wk =   0.0142222
        k(  123) = (   0.2666667  -0.3079201   0.1637477), wk =   0.0142222
        k(  124) = (   0.2666667  -0.3079201   0.2504376), wk =   0.0142222
        k(  125) = (   0.2666667  -0.3079201  -0.0963222), wk =   0.0142222
        k(  126) = (   0.2666667  -0.3079201  -0.0096322), wk =   0.0142222
        k(  127) = (   0.3333334  -0.3464101   0.0866899), wk =   0.0071111
        k(  128) = (   0.3333334  -0.3464101   0.1733799), wk =   0.0071111
        k(  129) = (   0.3333334  -0.3464101   0.2600698), wk =   0.0071111
        k(  130) = (   0.3333334  -0.3464101  -0.0866900), wk =   0.0071111
        k(  131) = (   0.3333334  -0.3464101  -0.0000000), wk =   0.0071111
        k(  132) = (  -0.6000001   0.1924501  -0.0481611), wk =   0.0071111
        k(  133) = (  -0.6000001   0.1924501   0.0385289), wk =   0.0071111
        k(  134) = (  -0.6000001   0.1924501   0.1252188), wk =   0.0071111
        k(  135) = (  -0.6000001   0.1924501  -0.2215410), wk =   0.0071111
        k(  136) = (  -0.6000001   0.1924501  -0.1348510), wk =   0.0071111
        k(  137) = (  -0.5333334   0.1539601  -0.0385289), wk =   0.0142222
        k(  138) = (  -0.5333334   0.1539601   0.0481611), wk =   0.0142222
        k(  139) = (  -0.5333334   0.1539601   0.1348511), wk =   0.0142222
        k(  140) = (  -0.5333334   0.1539601  -0.2119088), wk =   0.0142222
        k(  141) = (  -0.5333334   0.1539601  -0.1252188), wk =   0.0142222
        k(  142) = (  -0.4666668   0.1154700  -0.0288966), wk =   0.0071111
        k(  143) = (  -0.4666668   0.1154700   0.0577933), wk =   0.0071111
        k(  144) = (  -0.4666668   0.1154700   0.1444833), wk =   0.0071111
        k(  145) = (  -0.4666668   0.1154700  -0.2022766), wk =   0.0071111
        k(  146) = (  -0.4666668   0.1154700  -0.1155866), wk =   0.0071111
        k(  147) = (  -0.4000001   0.0769800  -0.0192644), wk =   0.0071111
        k(  148) = (  -0.4000001   0.0769800   0.0674255), wk =   0.0071111
        k(  149) = (  -0.4000001   0.0769800   0.1541155), wk =   0.0071111
        k(  150) = (  -0.4000001   0.0769800  -0.1926443), wk =   0.0071111
        k(  151) = (  -0.4000001   0.0769800  -0.1059544), wk =   0.0071111
        k(  152) = (  -0.3333334   0.0384900  -0.0096322), wk =   0.0142222
        k(  153) = (  -0.3333334   0.0384900   0.0770577), wk =   0.0142222
        k(  154) = (  -0.3333334   0.0384900   0.1637477), wk =   0.0142222
        k(  155) = (  -0.3333334   0.0384900  -0.1830121), wk =   0.0142222
        k(  156) = (  -0.3333334   0.0384900  -0.0963222), wk =   0.0142222
        k(  157) = (  -0.2666667  -0.0000000   0.0000000), wk =   0.0035556
        k(  158) = (  -0.2666667  -0.0000000   0.0866900), wk =   0.0071111
        k(  159) = (  -0.2666667  -0.0000000   0.1733799), wk =   0.0071111
        k(  160) = (   0.2000000  -0.3464101   0.0866899), wk =   0.0213333
        k(  161) = (   0.2000000  -0.3464101   0.1733799), wk =   0.0213333
        k(  162) = (   0.2000000  -0.3464101  -0.0000000), wk =   0.0106667
        k(  163) = (   0.2666667  -0.3849002   0.0963221), wk =   0.0142222
        k(  164) = (   0.2666667  -0.3849002   0.1830121), wk =   0.0142222
        k(  165) = (   0.2666667  -0.3849002   0.2697020), wk =   0.0142222
        k(  166) = (   0.2666667  -0.3849002  -0.0770578), wk =   0.0142222
        k(  167) = (   0.2666667  -0.3849002   0.0096322), wk =   0.0142222
        k(  168) = (  -0.6666668   0.1539601  -0.0385289), wk =   0.0142222
        k(  169) = (  -0.6666668   0.1539601   0.0481611), wk =   0.0142222
        k(  170) = (  -0.6666668   0.1539601   0.1348511), wk =   0.0142222
        k(  171) = (  -0.6666668   0.1539601  -0.2119088), wk =   0.0142222
        k(  172) = (  -0.6666668   0.1539601  -0.1252188), wk =   0.0142222
        k(  173) = (  -0.6000001   0.1154700  -0.0288966), wk =   0.0213333
        k(  174) = (  -0.6000001   0.1154700   0.0577933), wk =   0.0213333
        k(  175) = (  -0.6000001   0.1154700   0.1444833), wk =   0.0106667
        k(  176) = (   0.0000000  -0.3079201   0.0770577), wk =   0.0035556
        k(  177) = (   0.0000000  -0.3079201   0.1637477), wk =   0.0035556
        k(  178) = (   0.0000000  -0.3079201   0.2504376), wk =   0.0035556
        k(  179) = (   0.0000000  -0.3079201  -0.0963222), wk =   0.0035556
        k(  180) = (   0.0000000  -0.3079201  -0.0096322), wk =   0.0035556
        k(  181) = (   0.0666667  -0.3464101   0.0866899), wk =   0.0071111
        k(  182) = (   0.0666667  -0.3464101   0.1733799), wk =   0.0071111
        k(  183) = (   0.0666667  -0.3464101   0.2600698), wk =   0.0071111
        k(  184) = (   0.0666667  -0.3464101  -0.0866900), wk =   0.0071111
        k(  185) = (   0.0666667  -0.3464101  -0.0000000), wk =   0.0071111
        k(  186) = (   0.2000000  -0.4233902   0.1059543), wk =   0.0071111
        k(  187) = (   0.2000000  -0.4233902   0.1926443), wk =   0.0071111
        k(  188) = (   0.2000000  -0.4233902   0.2793343), wk =   0.0071111
        k(  189) = (   0.2000000  -0.4233902  -0.0674256), wk =   0.0071111
        k(  190) = (   0.2000000  -0.4233902   0.0192644), wk =   0.0071111
        k(  191) = (  -0.7333335   0.1154700  -0.0288966), wk =   0.0071111
        k(  192) = (  -0.7333335   0.1154700   0.0577933), wk =   0.0071111
        k(  193) = (  -0.7333335   0.1154700   0.1444833), wk =   0.0071111
        k(  194) = (  -0.7333335   0.1154700  -0.2022766), wk =   0.0071111
        k(  195) = (  -0.7333335   0.1154700  -0.1155866), wk =   0.0071111
        k(  196) = (  -0.6666668   0.0769800  -0.0192644), wk =   0.0142222
        k(  197) = (  -0.6666668   0.0769800   0.0674255), wk =   0.0142222
        k(  198) = (  -0.6666668   0.0769800   0.1541155), wk =   0.0142222
        k(  199) = (  -0.6666668   0.0769800  -0.1926443), wk =   0.0142222
        k(  200) = (  -0.6666668   0.0769800  -0.1059544), wk =   0.0142222
        k(  201) = (  -0.6000001   0.0384900  -0.0096322), wk =   0.0071111
        k(  202) = (  -0.6000001   0.0384900   0.0770577), wk =   0.0071111
        k(  203) = (  -0.6000001   0.0384900   0.1637477), wk =   0.0071111
        k(  204) = (  -0.6000001   0.0384900  -0.1830121), wk =   0.0071111
        k(  205) = (  -0.6000001   0.0384900  -0.0963222), wk =   0.0071111
        k(  206) = (  -0.5333334   0.0000000  -0.0000000), wk =   0.0035556
        k(  207) = (  -0.5333334   0.0000000   0.0866900), wk =   0.0071111
        k(  208) = (  -0.5333334   0.0000000   0.1733799), wk =   0.0071111
        k(  209) = (   0.0000000  -0.3849002   0.0963221), wk =   0.0035556
        k(  210) = (   0.0000000  -0.3849002   0.1830121), wk =   0.0035556
        k(  211) = (   0.0000000  -0.3849002   0.2697020), wk =   0.0035556
        k(  212) = (   0.0000000  -0.3849002  -0.0770578), wk =   0.0035556
        k(  213) = (   0.0000000  -0.3849002   0.0096322), wk =   0.0035556
        k(  214) = (   0.1333334  -0.4618802   0.1155866), wk =   0.0071111
        k(  215) = (   0.1333334  -0.4618802   0.2022765), wk =   0.0071111
        k(  216) = (   0.1333334  -0.4618802   0.2889665), wk =   0.0071111
        k(  217) = (   0.1333334  -0.4618802  -0.0577934), wk =   0.0071111
        k(  218) = (   0.1333334  -0.4618802   0.0288966), wk =   0.0071111
        k(  219) = (  -0.8000001   0.0769800  -0.0192644), wk =   0.0071111
        k(  220) = (  -0.8000001   0.0769800   0.0674255), wk =   0.0071111
        k(  221) = (  -0.8000001   0.0769800   0.1541155), wk =   0.0071111
        k(  222) = (  -0.8000001   0.0769800  -0.1926443), wk =   0.0071111
        k(  223) = (  -0.8000001   0.0769800  -0.1059544), wk =   0.0071111
        k(  224) = (  -0.6666668   0.0000000  -0.0000000), wk =   0.0035556
        k(  225) = (  -0.6666668   0.0000000   0.0866900), wk =   0.0071111
        k(  226) = (  -0.6666668   0.0000000   0.1733799), wk =   0.0071111
        k(  227) = (   0.0000000  -0.5388602   0.1348510), wk =   0.0035556
        k(  228) = (   0.0000000  -0.5388602   0.2215409), wk =   0.0035556
        k(  229) = (   0.0000000  -0.5388602   0.3082309), wk =   0.0035556
        k(  230) = (   0.0000000  -0.5388602  -0.0385289), wk =   0.0035556
        k(  231) = (   0.0000000  -0.5388602   0.0481610), wk =   0.0035556
        k(  232) = (  -0.9333335   0.0000000   0.0000000), wk =   0.0035556
        k(  233) = (  -0.9333335   0.0000000   0.0866900), wk =   0.0071111
        k(  234) = (  -0.9333335   0.0000000   0.1733799), wk =   0.0071111

                       cryst. coord.
        k(    1) = (   0.0000000   0.0000000   0.0000000), wk =   0.0017778
        k(    2) = (   0.0000000   0.0000000   0.2000000), wk =   0.0035556
        k(    3) = (   0.0000000   0.0000000   0.4000000), wk =   0.0035556
        k(    4) = (  -0.0000000   0.0666667   0.0000000), wk =   0.0071111
        k(    5) = (  -0.0000000   0.0666667   0.2000000), wk =   0.0071111
        k(    6) = (  -0.0000000   0.0666667   0.4000000), wk =   0.0071111
        k(    7) = (  -0.0000000   0.0666667  -0.4000000), wk =   0.0071111
        k(    8) = (  -0.0000000   0.0666667  -0.2000000), wk =   0.0071111
        k(    9) = (  -0.0000000   0.1333333   0.0000000), wk =   0.0071111
        k(   10) = (  -0.0000000   0.1333333   0.2000000), wk =   0.0071111
        k(   11) = (  -0.0000000   0.1333333   0.4000000), wk =   0.0071111
        k(   12) = (  -0.0000000   0.1333333  -0.4000000), wk =   0.0071111
        k(   13) = (  -0.0000000   0.1333333  -0.2000000), wk =   0.0071111
        k(   14) = (  -0.0000000   0.2000000   0.0000000), wk =   0.0106667
        k(   15) = (  -0.0000000   0.2000000   0.2000000), wk =   0.0106667
        k(   16) = (  -0.0000000   0.2000000   0.4000000), wk =   0.0106667
        k(   17) = (  -0.0000000   0.2000000  -0.4000000), wk =   0.0106667
        k(   18) = (  -0.0000000   0.2000000  -0.2000000), wk =   0.0106667
        k(   19) = (  -0.0000000   0.2666667   0.0000000), wk =   0.0071111
        k(   20) = (  -0.0000000   0.2666667   0.2000000), wk =   0.0071111
        k(   21) = (  -0.0000000   0.2666667   0.4000000), wk =   0.0071111
        k(   22) = (  -0.0000000   0.2666667  -0.4000000), wk =   0.0071111
        k(   23) = (  -0.0000000   0.2666667  -0.2000000), wk =   0.0071111
        k(   24) = (  -0.0000000   0.3333333   0.0000000), wk =   0.0071111
        k(   25) = (  -0.0000000   0.3333333   0.2000000), wk =   0.0071111
        k(   26) = (  -0.0000000   0.3333333   0.4000000), wk =   0.0071111
        k(   27) = (  -0.0000000   0.3333333  -0.4000000), wk =   0.0071111
        k(   28) = (  -0.0000000   0.3333333  -0.2000000), wk =   0.0071111
        k(   29) = (  -0.0000000   0.4000000   0.0000000), wk =   0.0106667
        k(   30) = (  -0.0000000   0.4000000   0.2000000), wk =   0.0106667
        k(   31) = (  -0.0000000   0.4000000   0.4000000), wk =   0.0106667
        k(   32) = (  -0.0000000   0.4000000  -0.4000000), wk =   0.0106667
        k(   33) = (  -0.0000000   0.4000000  -0.2000000), wk =   0.0106667
        k(   34) = (   0.0000000   0.4666667   0.0000000), wk =   0.0071111
        k(   35) = (   0.0000000   0.4666667   0.2000000), wk =   0.0071111
        k(   36) = (   0.0000000   0.4666667   0.4000000), wk =   0.0071111
        k(   37) = (   0.0000000   0.4666667  -0.4000000), wk =   0.0071111
        k(   38) = (   0.0000000   0.4666667  -0.2000000), wk =   0.0071111
        k(   39) = (   0.0666667   0.0666667   0.0000000), wk =   0.0035556
        k(   40) = (   0.0666667   0.0666667   0.2000000), wk =   0.0035556
        k(   41) = (   0.0666667   0.0666667   0.4000000), wk =   0.0035556
        k(   42) = (   0.0666667   0.0666667  -0.4000000), wk =   0.0035556
        k(   43) = (   0.0666667   0.0666667  -0.2000000), wk =   0.0035556
        k(   44) = (   0.0666667   0.1333333   0.0000000), wk =   0.0071111
        k(   45) = (   0.0666667   0.1333333   0.2000000), wk =   0.0071111
        k(   46) = (   0.0666667   0.1333333   0.4000000), wk =   0.0071111
        k(   47) = (   0.0666667   0.1333333  -0.4000000), wk =   0.0071111
        k(   48) = (   0.0666667   0.1333333  -0.2000000), wk =   0.0071111
        k(   49) = (   0.0666667   0.2000000   0.0000000), wk =   0.0142222
        k(   50) = (   0.0666667   0.2000000   0.2000000), wk =   0.0142222
        k(   51) = (   0.0666667   0.2000000   0.4000000), wk =   0.0142222
        k(   52) = (   0.0666667   0.2000000  -0.4000000), wk =   0.0142222
        k(   53) = (   0.0666667   0.2000000  -0.2000000), wk =   0.0142222
        k(   54) = (   0.0666667   0.2666667   0.0000000), wk =   0.0071111
        k(   55) = (   0.0666667   0.2666667   0.2000000), wk =   0.0071111
        k(   56) = (   0.0666667   0.2666667   0.4000000), wk =   0.0071111
        k(   57) = (   0.0666667   0.2666667  -0.4000000), wk =   0.0071111
        k(   58) = (   0.0666667   0.2666667  -0.2000000), wk =   0.0071111
        k(   59) = (   0.0666667   0.3333333   0.0000000), wk =   0.0071111
        k(   60) = (   0.0666667   0.3333333   0.2000000), wk =   0.0071111
        k(   61) = (   0.0666667   0.3333333   0.4000000), wk =   0.0071111
        k(   62) = (   0.0666667   0.3333333  -0.4000000), wk =   0.0071111
        k(   63) = (   0.0666667   0.3333333  -0.2000000), wk =   0.0071111
        k(   64) = (   0.0666667   0.4000000   0.0000000), wk =   0.0142222
        k(   65) = (   0.0666667   0.4000000   0.2000000), wk =   0.0142222
        k(   66) = (   0.0666667   0.4000000   0.4000000), wk =   0.0142222
        k(   67) = (   0.0666667   0.4000000  -0.4000000), wk =   0.0142222
        k(   68) = (   0.0666667   0.4000000  -0.2000000), wk =   0.0142222
        k(   69) = (   0.0666667   0.4666667   0.0000000), wk =   0.0071111
        k(   70) = (   0.0666667   0.4666667   0.2000000), wk =   0.0071111
        k(   71) = (   0.0666667   0.4666667   0.4000000), wk =   0.0071111
        k(   72) = (   0.0666667   0.4666667  -0.4000000), wk =   0.0071111
        k(   73) = (   0.0666667   0.4666667  -0.2000000), wk =   0.0071111
        k(   74) = (   0.0666667  -0.4666667   0.0000000), wk =   0.0071111
        k(   75) = (   0.0666667  -0.4666667   0.2000000), wk =   0.0071111
        k(   76) = (   0.0666667  -0.4666667   0.4000000), wk =   0.0071111
        k(   77) = (   0.0666667  -0.4666667  -0.4000000), wk =   0.0071111
        k(   78) = (   0.0666667  -0.4666667  -0.2000000), wk =   0.0071111
        k(   79) = (   0.0666667  -0.4000000   0.0000000), wk =   0.0142222
        k(   80) = (   0.0666667  -0.4000000   0.2000000), wk =   0.0142222
        k(   81) = (   0.0666667  -0.4000000   0.4000000), wk =   0.0142222
        k(   82) = (   0.0666667  -0.4000000  -0.4000000), wk =   0.0142222
        k(   83) = (   0.0666667  -0.4000000  -0.2000000), wk =   0.0142222
        k(   84) = (   0.0666667  -0.3333333  -0.0000000), wk =   0.0071111
        k(   85) = (   0.0666667  -0.3333333   0.2000000), wk =   0.0071111
        k(   86) = (   0.0666667  -0.3333333   0.4000000), wk =   0.0071111
        k(   87) = (   0.0666667  -0.3333333  -0.4000000), wk =   0.0071111
        k(   88) = (   0.0666667  -0.3333333  -0.2000000), wk =   0.0071111
        k(   89) = (   0.0666667  -0.2666667  -0.0000000), wk =   0.0071111
        k(   90) = (   0.0666667  -0.2666667   0.2000000), wk =   0.0071111
        k(   91) = (   0.0666667  -0.2666667   0.4000000), wk =   0.0071111
        k(   92) = (   0.0666667  -0.2666667  -0.4000000), wk =   0.0071111
        k(   93) = (   0.0666667  -0.2666667  -0.2000000), wk =   0.0071111
        k(   94) = (   0.0666667  -0.2000000   0.0000000), wk =   0.0142222
        k(   95) = (   0.0666667  -0.2000000   0.2000000), wk =   0.0142222
        k(   96) = (   0.0666667  -0.2000000   0.4000000), wk =   0.0142222
        k(   97) = (   0.0666667  -0.2000000  -0.4000000), wk =   0.0142222
        k(   98) = (   0.0666667  -0.2000000  -0.2000000), wk =   0.0142222
        k(   99) = (   0.0666667  -0.1333333  -0.0000000), wk =   0.0071111
        k(  100) = (   0.0666667  -0.1333333   0.2000000), wk =   0.0071111
        k(  101) = (   0.0666667  -0.1333333   0.4000000), wk =   0.0071111
        k(  102) = (   0.0666667  -0.1333333  -0.4000000), wk =   0.0071111
        k(  103) = (   0.0666667  -0.1333333  -0.2000000), wk =   0.0071111
        k(  104) = (   0.0666667  -0.0666667  -0.0000000), wk =   0.0035556
        k(  105) = (   0.0666667  -0.0666667   0.2000000), wk =   0.0071111
        k(  106) = (   0.0666667  -0.0666667   0.4000000), wk =   0.0071111
        k(  107) = (   0.1333333   0.1333333   0.0000000), wk =   0.0035556
        k(  108) = (   0.1333333   0.1333333   0.2000000), wk =   0.0035556
        k(  109) = (   0.1333333   0.1333333   0.4000000), wk =   0.0035556
        k(  110) = (   0.1333333   0.1333333  -0.4000000), wk =   0.0035556
        k(  111) = (   0.1333333   0.1333333  -0.2000000), wk =   0.0035556
        k(  112) = (   0.1333333   0.2666667   0.0000000), wk =   0.0071111
        k(  113) = (   0.1333333   0.2666667   0.2000000), wk =   0.0071111
        k(  114) = (   0.1333333   0.2666667   0.4000000), wk =   0.0071111
        k(  115) = (   0.1333333   0.2666667  -0.4000000), wk =   0.0071111
        k(  116) = (   0.1333333   0.2666667  -0.2000000), wk =   0.0071111
        k(  117) = (   0.1333333   0.3333333   0.0000000), wk =   0.0071111
        k(  118) = (   0.1333333   0.3333333   0.2000000), wk =   0.0071111
        k(  119) = (   0.1333333   0.3333333   0.4000000), wk =   0.0071111
        k(  120) = (   0.1333333   0.3333333  -0.4000000), wk =   0.0071111
        k(  121) = (   0.1333333   0.3333333  -0.2000000), wk =   0.0071111
        k(  122) = (   0.1333333   0.4000000   0.0000000), wk =   0.0142222
        k(  123) = (   0.1333333   0.4000000   0.2000000), wk =   0.0142222
        k(  124) = (   0.1333333   0.4000000   0.4000000), wk =   0.0142222
        k(  125) = (   0.1333333   0.4000000  -0.4000000), wk =   0.0142222
        k(  126) = (   0.1333333   0.4000000  -0.2000000), wk =   0.0142222
        k(  127) = (   0.1333333   0.4666667   0.0000000), wk =   0.0071111
        k(  128) = (   0.1333333   0.4666667   0.2000000), wk =   0.0071111
        k(  129) = (   0.1333333   0.4666667   0.4000000), wk =   0.0071111
        k(  130) = (   0.1333333   0.4666667  -0.4000000), wk =   0.0071111
        k(  131) = (   0.1333333   0.4666667  -0.2000000), wk =   0.0071111
        k(  132) = (   0.1333333  -0.4666667   0.0000000), wk =   0.0071111
        k(  133) = (   0.1333333  -0.4666667   0.2000000), wk =   0.0071111
        k(  134) = (   0.1333333  -0.4666667   0.4000000), wk =   0.0071111
        k(  135) = (   0.1333333  -0.4666667  -0.4000000), wk =   0.0071111
        k(  136) = (   0.1333333  -0.4666667  -0.2000000), wk =   0.0071111
        k(  137) = (   0.1333333  -0.4000000  -0.0000000), wk =   0.0142222
        k(  138) = (   0.1333333  -0.4000000   0.2000000), wk =   0.0142222
        k(  139) = (   0.1333333  -0.4000000   0.4000000), wk =   0.0142222
        k(  140) = (   0.1333333  -0.4000000  -0.4000000), wk =   0.0142222
        k(  141) = (   0.1333333  -0.4000000  -0.2000000), wk =   0.0142222
        k(  142) = (   0.1333333  -0.3333333  -0.0000000), wk =   0.0071111
        k(  143) = (   0.1333333  -0.3333333   0.2000000), wk =   0.0071111
        k(  144) = (   0.1333333  -0.3333333   0.4000000), wk =   0.0071111
        k(  145) = (   0.1333333  -0.3333333  -0.4000000), wk =   0.0071111
        k(  146) = (   0.1333333  -0.3333333  -0.2000000), wk =   0.0071111
        k(  147) = (   0.1333333  -0.2666667  -0.0000000), wk =   0.0071111
        k(  148) = (   0.1333333  -0.2666667   0.2000000), wk =   0.0071111
        k(  149) = (   0.1333333  -0.2666667   0.4000000), wk =   0.0071111
        k(  150) = (   0.1333333  -0.2666667  -0.4000000), wk =   0.0071111
        k(  151) = (   0.1333333  -0.2666667  -0.2000000), wk =   0.0071111
        k(  152) = (   0.1333333  -0.2000000  -0.0000000), wk =   0.0142222
        k(  153) = (   0.1333333  -0.2000000   0.2000000), wk =   0.0142222
        k(  154) = (   0.1333333  -0.2000000   0.4000000), wk =   0.0142222
        k(  155) = (   0.1333333  -0.2000000  -0.4000000), wk =   0.0142222
        k(  156) = (   0.1333333  -0.2000000  -0.2000000), wk =   0.0142222
        k(  157) = (   0.1333333  -0.1333333  -0.0000000), wk =   0.0035556
        k(  158) = (   0.1333333  -0.1333333   0.2000000), wk =   0.0071111
        k(  159) = (   0.1333333  -0.1333333   0.4000000), wk =   0.0071111
        k(  160) = (   0.2000000   0.4000000   0.0000000), wk =   0.0213333
        k(  161) = (   0.2000000   0.4000000   0.2000000), wk =   0.0213333
        k(  162) = (   0.2000000   0.4000000  -0.2000000), wk =   0.0106667
        k(  163) = (   0.2000000   0.4666667   0.0000000), wk =   0.0142222
        k(  164) = (   0.2000000   0.4666667   0.2000000), wk =   0.0142222
        k(  165) = (   0.2000000   0.4666667   0.4000000), wk =   0.0142222
        k(  166) = (   0.2000000   0.4666667  -0.4000000), wk =   0.0142222
        k(  167) = (   0.2000000   0.4666667  -0.2000000), wk =   0.0142222
        k(  168) = (   0.2000000  -0.4666667   0.0000000), wk =   0.0142222
        k(  169) = (   0.2000000  -0.4666667   0.2000000), wk =   0.0142222
        k(  170) = (   0.2000000  -0.4666667   0.4000000), wk =   0.0142222
        k(  171) = (   0.2000000  -0.4666667  -0.4000000), wk =   0.0142222
        k(  172) = (   0.2000000  -0.4666667  -0.2000000), wk =   0.0142222
        k(  173) = (   0.2000000  -0.4000000   0.0000000), wk =   0.0213333
        k(  174) = (   0.2000000  -0.4000000   0.2000000), wk =   0.0213333
        k(  175) = (   0.2000000  -0.4000000   0.4000000), wk =   0.0106667
        k(  176) = (   0.2666667   0.2666667   0.0000000), wk =   0.0035556
        k(  177) = (   0.2666667   0.2666667   0.2000000), wk =   0.0035556
        k(  178) = (   0.2666667   0.2666667   0.4000000), wk =   0.0035556
        k(  179) = (   0.2666667   0.2666667  -0.4000000), wk =   0.0035556
        k(  180) = (   0.2666667   0.2666667  -0.2000000), wk =   0.0035556
        k(  181) = (   0.2666667   0.3333333   0.0000000), wk =   0.0071111
        k(  182) = (   0.2666667   0.3333333   0.2000000), wk =   0.0071111
        k(  183) = (   0.2666667   0.3333333   0.4000000), wk =   0.0071111
        k(  184) = (   0.2666667   0.3333333  -0.4000000), wk =   0.0071111
        k(  185) = (   0.2666667   0.3333333  -0.2000000), wk =   0.0071111
        k(  186) = (   0.2666667   0.4666667   0.0000000), wk =   0.0071111
        k(  187) = (   0.2666667   0.4666667   0.2000000), wk =   0.0071111
        k(  188) = (   0.2666667   0.4666667   0.4000000), wk =   0.0071111
        k(  189) = (   0.2666667   0.4666667  -0.4000000), wk =   0.0071111
        k(  190) = (   0.2666667   0.4666667  -0.2000000), wk =   0.0071111
        k(  191) = (   0.2666667  -0.4666667  -0.0000000), wk =   0.0071111
        k(  192) = (   0.2666667  -0.4666667   0.2000000), wk =   0.0071111
        k(  193) = (   0.2666667  -0.4666667   0.4000000), wk =   0.0071111
        k(  194) = (   0.2666667  -0.4666667  -0.4000000), wk =   0.0071111
        k(  195) = (   0.2666667  -0.4666667  -0.2000000), wk =   0.0071111
        k(  196) = (   0.2666667  -0.4000000  -0.0000000), wk =   0.0142222
        k(  197) = (   0.2666667  -0.4000000   0.2000000), wk =   0.0142222
        k(  198) = (   0.2666667  -0.4000000   0.4000000), wk =   0.0142222
        k(  199) = (   0.2666667  -0.4000000  -0.4000000), wk =   0.0142222
        k(  200) = (   0.2666667  -0.4000000  -0.2000000), wk =   0.0142222
        k(  201) = (   0.2666667  -0.3333333  -0.0000000), wk =   0.0071111
        k(  202) = (   0.2666667  -0.3333333   0.2000000), wk =   0.0071111
        k(  203) = (   0.2666667  -0.3333333   0.4000000), wk =   0.0071111
        k(  204) = (   0.2666667  -0.3333333  -0.4000000), wk =   0.0071111
        k(  205) = (   0.2666667  -0.3333333  -0.2000000), wk =   0.0071111
        k(  206) = (   0.2666667  -0.2666667   0.0000000), wk =   0.0035556
        k(  207) = (   0.2666667  -0.2666667   0.2000000), wk =   0.0071111
        k(  208) = (   0.2666667  -0.2666667   0.4000000), wk =   0.0071111
        k(  209) = (   0.3333333   0.3333333   0.0000000), wk =   0.0035556
        k(  210) = (   0.3333333   0.3333333   0.2000000), wk =   0.0035556
        k(  211) = (   0.3333333   0.3333333   0.4000000), wk =   0.0035556
        k(  212) = (   0.3333333   0.3333333  -0.4000000), wk =   0.0035556
        k(  213) = (   0.3333333   0.3333333  -0.2000000), wk =   0.0035556
        k(  214) = (   0.3333333   0.4666667   0.0000000), wk =   0.0071111
        k(  215) = (   0.3333333   0.4666667   0.2000000), wk =   0.0071111
        k(  216) = (   0.3333333   0.4666667   0.4000000), wk =   0.0071111
        k(  217) = (   0.3333333   0.4666667  -0.4000000), wk =   0.0071111
        k(  218) = (   0.3333333   0.4666667  -0.2000000), wk =   0.0071111
        k(  219) = (   0.3333333  -0.4666667  -0.0000000), wk =   0.0071111
        k(  220) = (   0.3333333  -0.4666667   0.2000000), wk =   0.0071111
        k(  221) = (   0.3333333  -0.4666667   0.4000000), wk =   0.0071111
        k(  222) = (   0.3333333  -0.4666667  -0.4000000), wk =   0.0071111
        k(  223) = (   0.3333333  -0.4666667  -0.2000000), wk =   0.0071111
        k(  224) = (   0.3333333  -0.3333333   0.0000000), wk =   0.0035556
        k(  225) = (   0.3333333  -0.3333333   0.2000000), wk =   0.0071111
        k(  226) = (   0.3333333  -0.3333333   0.4000000), wk =   0.0071111
        k(  227) = (   0.4666667   0.4666667   0.0000000), wk =   0.0035556
        k(  228) = (   0.4666667   0.4666667   0.2000000), wk =   0.0035556
        k(  229) = (   0.4666667   0.4666667   0.4000000), wk =   0.0035556
        k(  230) = (   0.4666667   0.4666667  -0.4000000), wk =   0.0035556
        k(  231) = (   0.4666667   0.4666667  -0.2000000), wk =   0.0035556
        k(  232) = (   0.4666667  -0.4666667   0.0000000), wk =   0.0035556
        k(  233) = (   0.4666667  -0.4666667   0.2000000), wk =   0.0071111
        k(  234) = (   0.4666667  -0.4666667   0.4000000), wk =   0.0071111

     Dense  grid:   169655 G-vectors     FFT dimensions: (  60,  60, 135)

     Smooth grid:    92305 G-vectors     FFT dimensions: (  48,  48, 108)

     Dynamical RAM for                 wfc:       0.39 MB

     Dynamical RAM for     wfc (w. buffer):      46.02 MB

     Dynamical RAM for           str. fact:       0.16 MB

     Dynamical RAM for           local pot:       0.00 MB

     Dynamical RAM for          nlocal pot:       0.49 MB

     Dynamical RAM for                qrad:       3.52 MB

     Dynamical RAM for          rho,v,vnew:       0.65 MB

     Dynamical RAM for               rhoin:       0.22 MB

     Dynamical RAM for            rho*nmix:       1.30 MB

     Dynamical RAM for           G-vectors:       0.33 MB

     Dynamical RAM for          h,s,v(r/c):       0.92 MB

     Dynamical RAM for          <psi|beta>:       0.10 MB

     Dynamical RAM for                 psi:       0.78 MB

     Dynamical RAM for                hpsi:       0.78 MB

     Dynamical RAM for      wfcinit/wfcrot:       0.90 MB

     Estimated static dynamical RAM per process >      53.62 MB

     Estimated max dynamical RAM per process >      56.20 MB

     Estimated total dynamical RAM >       3.51 GB

     Check: negative core charge=   -0.000002

     Initial potential from superposition of free atoms

     starting charge  117.99826, renormalised to  118.00000
     Starting wfcs are   65 randomized atomic wfcs +    6 random wfcs

     total cpu time spent up to now is        5.1 secs

     Self-consistent Calculation

     iteration #  1     ecut=    80.00 Ry     beta= 0.70
     Davidson diagonalization with overlap
     ethr =  1.00E-02,  avg # of iterations =  5.8

     Threshold (ethr) on eigenvalues was too large:
     Diagonalizing with lowered threshold

     Davidson diagonalization with overlap
     ethr =  2.49E-04,  avg # of iterations =  3.5

     total cpu time spent up to now is       39.1 secs

     total energy              =   -2956.45144882 Ry
     estimated scf accuracy    <       0.29014255 Ry

     iteration #  2     ecut=    80.00 Ry     beta= 0.70
     Davidson diagonalization with overlap
     ethr =  2.46E-04,  avg # of iterations =  7.6

     total cpu time spent up to now is       64.2 secs

     total energy              =   -2955.93867653 Ry
     estimated scf accuracy    <       5.96531676 Ry

     iteration #  3     ecut=    80.00 Ry     beta= 0.70
     Davidson diagonalization with overlap
     ethr =  2.46E-04,  avg # of iterations =  6.1

     total cpu time spent up to now is       86.3 secs

     total energy              =   -2956.58623423 Ry
     estimated scf accuracy    <       0.27398957 Ry

     iteration #  4     ecut=    80.00 Ry     beta= 0.70
     Davidson diagonalization with overlap
     ethr =  2.32E-04,  avg # of iterations =  2.1

     total cpu time spent up to now is      101.0 secs

     total energy              =   -2956.61615157 Ry
     estimated scf accuracy    <       0.00886885 Ry

     iteration #  5     ecut=    80.00 Ry     beta= 0.70
     Davidson diagonalization with overlap
     ethr =  7.52E-06,  avg # of iterations =  6.0

     total cpu time spent up to now is      118.8 secs

     total energy              =   -2956.61707145 Ry
     estimated scf accuracy    <       0.00025385 Ry

     iteration #  6     ecut=    80.00 Ry     beta= 0.70
     Davidson diagonalization with overlap
     ethr =  2.15E-07,  avg # of iterations =  2.1

     total cpu time spent up to now is      133.3 secs

     total energy              =   -2956.61711324 Ry
     estimated scf accuracy    <       0.00001348 Ry

     iteration #  7     ecut=    80.00 Ry     beta= 0.70
     Davidson diagonalization with overlap
     ethr =  1.14E-08,  avg # of iterations =  2.0

     total cpu time spent up to now is      148.6 secs

     total energy              =   -2956.61711505 Ry
     estimated scf accuracy    <       0.00000085 Ry

     iteration #  8     ecut=    80.00 Ry     beta= 0.70
     Davidson diagonalization with overlap
     ethr =  7.21E-10,  avg # of iterations =  2.0

     total cpu time spent up to now is      164.1 secs

     total energy              =   -2956.61711514 Ry
     estimated scf accuracy    <       0.00000012 Ry

     iteration #  9     ecut=    80.00 Ry     beta= 0.70
     Davidson diagonalization with overlap
     ethr =  1.02E-10,  avg # of iterations =  2.0

     total cpu time spent up to now is      178.2 secs

     total energy              =   -2956.61711516 Ry
     estimated scf accuracy    <          4.0E-09 Ry

     iteration # 10     ecut=    80.00 Ry     beta= 0.70
     Davidson diagonalization with overlap
     ethr =  3.41E-12,  avg # of iterations =  2.0

     total cpu time spent up to now is      192.4 secs

     End of self-consistent calculation

          k = 0.0000 0.0000 0.0000 ( 11517 PWs)   bands (ev):

  -197.5331-197.3585-197.3584-143.1871-143.1871-137.0148-136.9847-136.9847
  -136.8397-136.8383-136.8037-136.8037-136.8004-136.8004 -81.2145 -81.2145
   -81.2145 -81.2145 -81.2090 -81.2090 -37.1884 -37.1801 -37.1801 -37.1500
   -37.1500 -36.9996 -36.9986 -36.9897 -36.9897 -36.9848 -36.9848 -36.9556
   -36.9556 -36.9502 -36.9502 -12.4928 -12.4928 -12.4908 -12.4908 -12.4805
   -12.4775 -12.4701 -12.4701 -12.4669 -12.4669  -3.8589  -2.6094  -2.5251
     0.7117   1.4504   8.2379   8.2519   8.5776   8.5776   9.0126   9.0126
     9.7222   9.7222  10.6587  10.7693  11.7597  11.7597  13.0291  13.3131
    13.3131  16.2389  16.7935  17.4464  17.4464  17.6222  18.1950

     occupation numbers 
     1.0000   1.0000   1.0000   1.0000   1.0000   1.0000   1.0000   1.0000
     1.0000   1.0000   1.0000   1.0000   1.0000   1.0000   1.0000   1.0000
     1.0000   1.0000   1.0000   1.0000   1.0000   1.0000   1.0000   1.0000
     1.0000   1.0000   1.0000   1.0000   1.0000   1.0000   1.0000   1.0000
     1.0000   1.0000   1.0000   1.0000   1.0000   1.0000   1.0000   1.0000
     1.0000   1.0000   1.0000   1.0000   1.0000   1.0000   1.0000   1.0000
     1.0000   1.0000   1.0000   1.0000   1.0000   1.0000   1.0000   1.0000
     1.0000   1.0000   0.8522   0.1452   0.0000   0.0000   0.0000   0.0000
     0.0000   0.0000   0.0000   0.0000   0.0000   0.0000   0.0000

          k = 0.0000 0.0000 0.0867 ( 11529 PWs)   bands (ev):

  -197.5331-197.3585-197.3584-143.1871-143.1871-137.0146-136.9854-136.9854
  -136.8398-136.8378-136.8039-136.8039-136.8017-136.8016 -81.2145 -81.2145
   -81.2145 -81.2145 -81.2090 -81.2090 -37.1859 -37.1822 -37.1822 -37.1511
   -37.1511 -36.9994 -36.9937 -36.9911 -36.9911 -36.9874 -36.9874 -36.9561
   -36.9561 -36.9520 -36.9520 -12.4928 -12.4928 -12.4908 -12.4908 -12.4804
   -12.4776 -12.4701 -12.4701 -12.4668 -12.4668  -3.8248  -2.9288  -2.1744
     0.4616   1.6556   7.8640   8.5676   8.5676   8.6834   9.0572   9.0572
     9.6554   9.6554  10.2226  11.2320  11.8766  11.8766  12.9044  13.1910
    13.1910  16.1067  16.8914  17.2920  17.2920  18.0570  18.5018

     occupation numbers 
     1.0000   1.0000   1.0000   1.0000   1.0000   1.0000   1.0000   1.0000
     1.0000   1.0000   1.0000   1.0000   1.0000   1.0000   1.0000   1.0000
     1.0000   1.0000   1.0000   1.0000   1.0000   1.0000   1.0000   1.0000
     1.0000   1.0000   1.0000   1.0000   1.0000   1.0000   1.0000   1.0000
     1.0000   1.0000   1.0000   1.0000   1.0000   1.0000   1.0000   1.0000
     1.0000   1.0000   1.0000   1.0000   1.0000   1.0000   1.0000   1.0000
     1.0000   1.0000   1.0000   1.0000   1.0000   1.0000   1.0000   1.0000
     1.0000   1.0000   1.0000   0.0000   0.0000   0.0000   0.0000   0.0000
     0.0000   0.0000   0.0000   0.0000   0.0000   0.0000   0.0000

          k = 0.0000 0.0000 0.1734 ( 11479 PWs)   bands (ev):

  -197.5331-197.3584-197.3584-143.1871-143.1871-137.0124-136.9834-136.9834
  -136.8374-136.8358-136.8009-136.8009-136.8005-136.8005 -81.2145 -81.2145
   -81.2145 -81.2145 -81.2090 -81.2090 -37.1813 -37.1785 -37.1785 -37.1475
   -37.1475 -36.9942 -36.9898 -36.9875 -36.9875 -36.9841 -36.9841 -36.9508
   -36.9508 -36.9496 -36.9496 -12.4928 -12.4928 -12.4908 -12.4908 -12.4803
   -12.4777 -12.4702 -12.4701 -12.4668 -12.4668  -3.7516  -3.1725  -1.8787
     0.1466   1.8799   7.6355   8.5559   8.5559   9.0848   9.1503   9.1503
     9.5306   9.5306   9.8107  11.6820  12.1154  12.1154  12.6271  12.9438
    12.9438  15.9649  17.1351  17.1351  17.2753  17.8861  18.9739

     occupation numbers 
     1.0000   1.0000   1.0000   1.0000   1.0000   1.0000   1.0000   1.0000
     1.0000   1.0000   1.0000   1.0000   1.0000   1.0000   1.0000   1.0000
     1.0000   1.0000   1.0000   1.0000   1.0000   1.0000   1.0000   1.0000
     1.0000   1.0000   1.0000   1.0000   1.0000   1.0000   1.0000   1.0000
     1.0000   1.0000   1.0000   1.0000   1.0000   1.0000   1.0000   1.0000
     1.0000   1.0000   1.0000   1.0000   1.0000   1.0000   1.0000   1.0000
     1.0000   1.0000   1.0000   1.0000   1.0000   1.0000   1.0000   1.0000
     1.0000   1.0000   1.0000   0.0000   0.0000   0.0000   0.0000   0.0000
     0.0000   0.0000   0.0000   0.0000   0.0000   0.0000   0.0000

          k = 0.0667-0.0385 0.0096 ( 11536 PWs)   bands (ev):

  -197.5331-197.3585-197.3585-143.1871-143.1871-137.0154-136.9857-136.9855
  -136.8397-136.8396-136.8042-136.8038-136.8020-136.8017 -81.2145 -81.2145
   -81.2145 -81.2145 -81.2090 -81.2090 -37.1887 -37.1826 -37.1816 -37.1524
   -37.1507 -37.0007 -36.9983 -36.9912 -36.9895 -36.9884 -36.9878 -36.9579
   -36.9547 -36.9528 -36.9524 -12.4931 -12.4916 -12.4910 -12.4897 -12.4799
   -12.4770 -12.4708 -12.4704 -12.4675 -12.4669  -3.8198  -2.5957  -2.4811
     0.6935   1.4169   7.8937   8.0277   8.4409   8.7271   9.0978   9.1653
     9.4354   9.5827  10.2063  11.2396  11.9409  12.2513  13.0359  13.0626
    13.2590  16.1903  16.4735  17.4786  17.5805  17.8829  18.3187

     occupation numbers 
     1.0000   1.0000   1.0000   1.0000   1.0000   1.0000   1.0000   1.0000
     1.0000   1.0000   1.0000   1.0000   1.0000   1.0000   1.0000   1.0000
     1.0000   1.0000   1.0000   1.0000   1.0000   1.0000   1.0000   1.0000
     1.0000   1.0000   1.0000   1.0000   1.0000   1.0000   1.0000   1.0000
     1.0000   1.0000   1.0000   1.0000   1.0000   1.0000   1.0000   1.0000
     1.0000   1.0000   1.0000   1.0000   1.0000   1.0000   1.0000   1.0000
     1.0000   1.0000   1.0000   1.0000   1.0000   1.0000   1.0000   1.0000
     1.0000   1.0000   1.0000   0.0000   0.0000   0.0000   0.0000   0.0000
     0.0000   0.0000   0.0000   0.0000   0.0000   0.0000   0.0000

          k = 0.0667-0.0385 0.0963 ( 11528 PWs)   bands (ev):

  -197.5331-197.3585-197.3585-143.1871-143.1871-137.0138-136.9863-136.9854
  -136.8384-136.8376-136.8051-136.8031-136.8024-136.8022 -81.2145 -81.2145
   -81.2145 -81.2145 -81.2090 -81.2090 -37.1870 -37.1808 -37.1797 -37.1528
   -37.1525 -36.9987 -36.9964 -36.9891 -36.9875 -36.9869 -36.9864 -36.9570
   -36.9567 -36.9540 -36.9539 -12.4931 -12.4916 -12.4910 -12.4897 -12.4798
   -12.4771 -12.4708 -12.4704 -12.4675 -12.4669  -3.7788  -2.9304  -2.1110
     0.4169   1.6376   7.7451   8.0756   8.4434   8.8074   9.1535   9.1666
     9.4843   9.4996  10.0915  11.3947  12.1636  12.1779  12.7931  13.0021
    13.2912  16.0312  16.7567  17.2495  17.4795  18.1747  18.3155

     occupation numbers 
     1.0000   1.0000   1.0000   1.0000   1.0000   1.0000   1.0000   1.0000
     1.0000   1.0000   1.0000   1.0000   1.0000   1.0000   1.0000   1.0000
     1.0000   1.0000   1.0000   1.0000   1.0000   1.0000   1.0000   1.0000
     1.0000   1.0000   1.0000   1.0000   1.0000   1.0000   1.0000   1.0000
     1.0000   1.0000   1.0000   1.0000   1.0000   1.0000   1.0000   1.0000
     1.0000   1.0000   1.0000   1.0000   1.0000   1.0000   1.0000   1.0000
     1.0000   1.0000   1.0000   1.0000   1.0000   1.0000   1.0000   1.0000
     1.0000   1.0000   1.0000   0.0000   0.0000   0.0000   0.0000   0.0000
     0.0000   0.0000   0.0000   0.0000   0.0000   0.0000   0.0000

          k = 0.0667-0.0385 0.1830 ( 11529 PWs)   bands (ev):

  -197.5331-197.3585-197.3585-143.1871-143.1871-137.0132-136.9867-136.9854
  -136.8382-136.8366-136.8052-136.8029-136.8029-136.8025 -81.2145 -81.2145
   -81.2145 -81.2145 -81.2090 -81.2090 -37.1853 -37.1809 -37.1798 -37.1534
   -37.1525 -36.9975 -36.9938 -36.9888 -36.9883 -36.9874 -36.9867 -36.9571
   -36.9560 -36.9550 -36.9546 -12.4931 -12.4916 -12.4910 -12.4897 -12.4797
   -12.4772 -12.4709 -12.4704 -12.4675 -12.4668  -3.7075  -3.1524  -1.8436
     0.1353   1.8284   7.6335   8.2063   8.4718   8.6803   8.9870   9.0325
     9.5916   9.8206  10.1140  11.5016  11.8878  12.1803  12.8358  12.9679
    13.3163  16.0186  16.7525  17.2796  17.4498  17.7947  18.7777

     occupation numbers 
     1.0000   1.0000   1.0000   1.0000   1.0000   1.0000   1.0000   1.0000
     1.0000   1.0000   1.0000   1.0000   1.0000   1.0000   1.0000   1.0000
     1.0000   1.0000   1.0000   1.0000   1.0000   1.0000   1.0000   1.0000
     1.0000   1.0000   1.0000   1.0000   1.0000   1.0000   1.0000   1.0000
     1.0000   1.0000   1.0000   1.0000   1.0000   1.0000   1.0000   1.0000
     1.0000   1.0000   1.0000   1.0000   1.0000   1.0000   1.0000   1.0000
     1.0000   1.0000   1.0000   1.0000   1.0000   1.0000   1.0000   1.0000
     1.0000   1.0000   1.0000   0.0000   0.0000   0.0000   0.0000   0.0000
     0.0000   0.0000   0.0000   0.0000   0.0000   0.0000   0.0000

          k = 0.0667-0.0385-0.1637 ( 11525 PWs)   bands (ev):

  -197.5331-197.3585-197.3585-143.1871-143.1871-137.0136-136.9856-136.9855
  -136.8386-136.8371-136.8040-136.8031-136.8027-136.8020 -81.2145 -81.2145
   -81.2145 -81.2145 -81.2090 -81.2090 -37.1851 -37.1816 -37.1801 -37.1531
   -37.1506 -36.9976 -36.9937 -36.9896 -36.9882 -36.9878 -36.9870 -36.9574
   -36.9544 -36.9537 -36.9530 -12.4931 -12.4916 -12.4910 -12.4897 -12.4797
   -12.4771 -12.4708 -12.4704 -12.4675 -12.4668  -3.7208  -3.1197  -1.8832
     0.1791   1.8000   7.6662   8.3336   8.4906   8.5331   8.8482   8.9446
     9.7123   9.9558  10.2044  11.3851  11.8463  11.9316  13.0841  13.1190
    13.2134  16.0592  16.7338  17.1962  17.3529  18.0416  18.5764

     occupation numbers 
     1.0000   1.0000   1.0000   1.0000   1.0000   1.0000   1.0000   1.0000
     1.0000   1.0000   1.0000   1.0000   1.0000   1.0000   1.0000   1.0000
     1.0000   1.0000   1.0000   1.0000   1.0000   1.0000   1.0000   1.0000
     1.0000   1.0000   1.0000   1.0000   1.0000   1.0000   1.0000   1.0000
     1.0000   1.0000   1.0000   1.0000   1.0000   1.0000   1.0000   1.0000
     1.0000   1.0000   1.0000   1.0000   1.0000   1.0000   1.0000   1.0000
     1.0000   1.0000   1.0000   1.0000   1.0000   1.0000   1.0000   1.0000
     1.0000   1.0000   1.0000   0.0000   0.0000   0.0000   0.0000   0.0000
     0.0000   0.0000   0.0000   0.0000   0.0000   0.0000   0.0000

          k = 0.0667-0.0385-0.0771 ( 11529 PWs)   bands (ev):

  -197.5331-197.3585-197.3584-143.1871-143.1871-137.0144-136.9858-136.9854
  -136.8396-136.8378-136.8043-136.8041-136.8020-136.8014 -81.2145 -81.2145
   -81.2145 -81.2145 -81.2090 -81.2090 -37.1878 -37.1821 -37.1794 -37.1531
   -37.1508 -37.0008 -36.9961 -36.9916 -36.9872 -36.9866 -36.9862 -36.9591
   -36.9547 -36.9529 -36.9524 -12.4931 -12.4916 -12.4910 -12.4897 -12.4798
   -12.4770 -12.4708 -12.4704 -12.4675 -12.4668  -3.7931  -2.8601  -2.1933
     0.4996   1.5734   7.7966   8.2485   8.4679   8.5230   8.9617   8.9820
     9.6856   9.7150  10.3952  11.0941  11.8187  12.2219  12.8956  13.1935
    13.3579  16.1499  16.5616  17.2788  17.5715  17.9850  18.2466

     occupation numbers 
     1.0000   1.0000   1.0000   1.0000   1.0000   1.0000   1.0000   1.0000
     1.0000   1.0000   1.0000   1.0000   1.0000   1.0000   1.0000   1.0000
     1.0000   1.0000   1.0000   1.0000   1.0000   1.0000   1.0000   1.0000
     1.0000   1.0000   1.0000   1.0000   1.0000   1.0000   1.0000   1.0000
     1.0000   1.0000   1.0000   1.0000   1.0000   1.0000   1.0000   1.0000
     1.0000   1.0000   1.0000   1.0000   1.0000   1.0000   1.0000   1.0000
     1.0000   1.0000   1.0000   1.0000   1.0000   1.0000   1.0000   1.0000
     1.0000   1.0000   1.0004   0.0000   0.0000   0.0000   0.0000   0.0000
     0.0000   0.0000   0.0000   0.0000   0.0000   0.0000   0.0000

          k = 0.1333-0.0770 0.0193 ( 11522 PWs)   bands (ev):

  -197.5331-197.3585-197.3585-143.1871-143.1871-137.0147-136.9856-136.9852
  -136.8394-136.8385-136.8036-136.8035-136.8023-136.8014 -81.2145 -81.2145
   -81.2145 -81.2145 -81.2090 -81.2090 -37.1869 -37.1819 -37.1814 -37.1513
   -37.1512 -36.9990 -36.9962 -36.9900 -36.9892 -36.9889 -36.9873 -36.9563
   -36.9547 -36.9534 -36.9519 -12.4943 -12.4919 -12.4885 -12.4865 -12.4782
   -12.4758 -12.4723 -12.4711 -12.4693 -12.4669  -3.7034  -2.5440  -2.3646
     0.6326   1.3169   7.4369   7.6410   8.1754   8.1882   9.0867   9.2179
     9.4062   9.5959   9.7957  11.9147  12.3236  12.3706  12.8149  13.1495
    13.4025  15.6748  16.4469  17.6359  17.7646  18.3093  18.6430

     occupation numbers 
     1.0000   1.0000   1.0000   1.0000   1.0000   1.0000   1.0000   1.0000
     1.0000   1.0000   1.0000   1.0000   1.0000   1.0000   1.0000   1.0000
     1.0000   1.0000   1.0000   1.0000   1.0000   1.0000   1.0000   1.0000
     1.0000   1.0000   1.0000   1.0000   1.0000   1.0000   1.0000   1.0000
     1.0000   1.0000   1.0000   1.0000   1.0000   1.0000   1.0000   1.0000
     1.0000   1.0000   1.0000   1.0000   1.0000   1.0000   1.0000   1.0000
     1.0000   1.0000   1.0000   1.0000   1.0000   1.0000   1.0000   1.0000
     1.0000   1.0000   1.0000   0.0000   0.0000   0.0000   0.0000   0.0000
     0.0000   0.0000   0.0000   0.0000   0.0000   0.0000   0.0000

          k = 0.1333-0.0770 0.1060 ( 11511 PWs)   bands (ev):

  -197.5331-197.3585-197.3584-143.1871-143.1871-137.0143-136.9852-136.9846
  -136.8389-136.8382-136.8037-136.8025-136.8013-136.8013 -81.2145 -81.2145
   -81.2145 -81.2145 -81.2090 -81.2090 -37.1862 -37.1827 -37.1788 -37.1506
   -37.1501 -36.9976 -36.9966 -36.9907 -36.9889 -36.9874 -36.9847 -36.9553
   -36.9544 -36.9524 -36.9504 -12.4943 -12.4919 -12.4885 -12.4865 -12.4781
   -12.4759 -12.4723 -12.4711 -12.4692 -12.4669  -3.6565  -2.8671  -2.0067
     0.3606   1.5213   7.3694   7.5953   8.2374   8.3708   8.8759   9.2894
     9.3458   9.5951   9.8346  11.9321  12.3403  12.4163  12.8564  13.0725
    13.3552  15.6833  16.7924  17.2294  17.7916  17.9574  18.4005

     occupation numbers 
     1.0000   1.0000   1.0000   1.0000   1.0000   1.0000   1.0000   1.0000
     1.0000   1.0000   1.0000   1.0000   1.0000   1.0000   1.0000   1.0000
     1.0000   1.0000   1.0000   1.0000   1.0000   1.0000   1.0000   1.0000
     1.0000   1.0000   1.0000   1.0000   1.0000   1.0000   1.0000   1.0000
     1.0000   1.0000   1.0000   1.0000   1.0000   1.0000   1.0000   1.0000
     1.0000   1.0000   1.0000   1.0000   1.0000   1.0000   1.0000   1.0000
     1.0000   1.0000   1.0000   1.0000   1.0000   1.0000   1.0000   1.0000
     1.0000   1.0000   1.0000   0.0000   0.0000   0.0000   0.0000   0.0000
     0.0000   0.0000   0.0000   0.0000   0.0000   0.0000   0.0000

          k = 0.1333-0.0770 0.1926 ( 11503 PWs)   bands (ev):

  -197.5331-197.3585-197.3584-143.1871-143.1871-137.0124-136.9857-136.9850
  -136.8381-136.8351-136.8039-136.8038-136.8023-136.8007 -81.2145 -81.2145
   -81.2145 -81.2145 -81.2090 -81.2090 -37.1824 -37.1807 -37.1792 -37.1532
   -37.1499 -36.9959 -36.9906 -36.9888 -36.9884 -36.9869 -36.9840 -36.9589
   -36.9540 -36.9532 -36.9515 -12.4943 -12.4918 -12.4885 -12.4865 -12.4780
   -12.4760 -12.4723 -12.4711 -12.4692 -12.4669  -3.5901  -3.0603  -1.7826
     0.1419   1.6516   7.4111   7.6558   8.2469   8.2731   8.7548   8.9198
     9.5541   9.7404  10.2487  11.5198  12.0704  12.1382  13.1802  13.3144
    13.5686  15.9413  16.6280  17.2353  17.6109  17.6209  18.7195

     occupation numbers 
     1.0000   1.0000   1.0000   1.0000   1.0000   1.0000   1.0000   1.0000
     1.0000   1.0000   1.0000   1.0000   1.0000   1.0000   1.0000   1.0000
     1.0000   1.0000   1.0000   1.0000   1.0000   1.0000   1.0000   1.0000
     1.0000   1.0000   1.0000   1.0000   1.0000   1.0000   1.0000   1.0000
     1.0000   1.0000   1.0000   1.0000   1.0000   1.0000   1.0000   1.0000
     1.0000   1.0000   1.0000   1.0000   1.0000   1.0000   1.0000   1.0000
     1.0000   1.0000   1.0000   1.0000   1.0000   1.0000   1.0000   1.0000
     1.0000   1.0000   1.0000   0.0000   0.0000   0.0000   0.0000   0.0000
     0.0000   0.0000   0.0000   0.0000   0.0000   0.0000   0.0000

          k = 0.1333-0.0770-0.1541 ( 11524 PWs)   bands (ev):

  -197.5331-197.3585-197.3584-143.1871-143.1871-137.0140-136.9859-136.9856
  -136.8396-136.8368-136.8046-136.8042-136.8020-136.8016 -81.2145 -81.2145
   -81.2145 -81.2145 -81.2090 -81.2090 -37.1837 -37.1829 -37.1822 -37.1527
   -37.1509 -36.9973 -36.9925 -36.9919 -36.9899 -36.9886 -36.9880 -36.9589
   -36.9550 -36.9525 -36.9523 -12.4943 -12.4918 -12.4885 -12.4865 -12.4781
   -12.4759 -12.4723 -12.4711 -12.4693 -12.4669  -3.6160  -2.9956  -1.8597
     0.2285   1.5946   7.5423   7.7462   8.0037   8.2317   8.6953   8.8348
     9.7121   9.9315  10.3397  11.3227  11.9041  11.9498  13.3064  13.4830
    13.6923  16.1564  16.3539  17.0621  17.4720  18.2170  18.4142

     occupation numbers 
     1.0000   1.0000   1.0000   1.0000   1.0000   1.0000   1.0000   1.0000
     1.0000   1.0000   1.0000   1.0000   1.0000   1.0000   1.0000   1.0000
     1.0000   1.0000   1.0000   1.0000   1.0000   1.0000   1.0000   1.0000
     1.0000   1.0000   1.0000   1.0000   1.0000   1.0000   1.0000   1.0000
     1.0000   1.0000   1.0000   1.0000   1.0000   1.0000   1.0000   1.0000
     1.0000   1.0000   1.0000   1.0000   1.0000   1.0000   1.0000   1.0000
     1.0000   1.0000   1.0000   1.0000   1.0000   1.0000   1.0000   1.0000
     1.0000   1.0000   1.0000   0.0000   0.0000   0.0000   0.0000   0.0000
     0.0000   0.0000   0.0000   0.0000   0.0000   0.0000   0.0000

          k = 0.1333-0.0770-0.0674 ( 11528 PWs)   bands (ev):

  -197.5331-197.3585-197.3585-143.1871-143.1871-137.0151-136.9860-136.9850
  -136.8397-136.8390-136.8042-136.8032-136.8025-136.8013 -81.2145 -81.2145
   -81.2145 -81.2145 -81.2090 -81.2090 -37.1881 -37.1826 -37.1811 -37.1517
   -37.1510 -37.0005 -36.9968 -36.9904 -36.9900 -36.9890 -36.9866 -36.9576
   -36.9541 -36.9535 -36.9516 -12.4943 -12.4918 -12.4884 -12.4865 -12.4782
   -12.4758 -12.4723 -12.4711 -12.4693 -12.4669  -3.6850  -2.7261  -2.1702
     0.5256   1.3934   7.5756   7.7447   7.9214   8.1846   8.8479   9.0250
     9.5121   9.9592  10.0656  11.5953  11.9527  12.0775  13.1769  13.4125
    13.5965  15.9066  16.3007  17.4759  17.5903  18.2318  18.5560

     occupation numbers 
     1.0000   1.0000   1.0000   1.0000   1.0000   1.0000   1.0000   1.0000
     1.0000   1.0000   1.0000   1.0000   1.0000   1.0000   1.0000   1.0000
     1.0000   1.0000   1.0000   1.0000   1.0000   1.0000   1.0000   1.0000
     1.0000   1.0000   1.0000   1.0000   1.0000   1.0000   1.0000   1.0000
     1.0000   1.0000   1.0000   1.0000   1.0000   1.0000   1.0000   1.0000
     1.0000   1.0000   1.0000   1.0000   1.0000   1.0000   1.0000   1.0000
     1.0000   1.0000   1.0000   1.0000   1.0000   1.0000   1.0000   1.0000
     1.0000   1.0000   1.0000   0.0000   0.0000   0.0000   0.0000   0.0000
     0.0000   0.0000   0.0000   0.0000   0.0000   0.0000   0.0000

          k = 0.2000-0.1155 0.0289 ( 11516 PWs)   bands (ev):

  -197.5331-197.3585-197.3585-143.1871-143.1871-137.0140-136.9861-136.9852
  -136.8390-136.8375-136.8035-136.8034-136.8033-136.8018 -81.2145 -81.2145
   -81.2145 -81.2145 -81.2090 -81.2090 -37.1865 -37.1809 -37.1805 -37.1530
   -37.1513 -36.9991 -36.9955 -36.9902 -36.9897 -36.9864 -36.9854 -36.9573
   -36.9546 -36.9542 -36.9537 -12.4965 -12.4934 -12.4839 -12.4819 -12.4777
   -12.4752 -12.4720 -12.4717 -12.4706 -12.4670  -3.5139  -2.4522  -2.1942
     0.5131   1.1553   6.9805   7.2349   7.5053   7.9253   8.7713   8.8840
     9.4665   9.5337  10.0553  11.8121  12.4086  12.5236  12.9802  13.2387
    14.0706  15.1212  16.6775  17.9464  17.9857  18.2786  18.6378

     occupation numbers 
     1.0000   1.0000   1.0000   1.0000   1.0000   1.0000   1.0000   1.0000
     1.0000   1.0000   1.0000   1.0000   1.0000   1.0000   1.0000   1.0000
     1.0000   1.0000   1.0000   1.0000   1.0000   1.0000   1.0000   1.0000
     1.0000   1.0000   1.0000   1.0000   1.0000   1.0000   1.0000   1.0000
     1.0000   1.0000   1.0000   1.0000   1.0000   1.0000   1.0000   1.0000
     1.0000   1.0000   1.0000   1.0000   1.0000   1.0000   1.0000   1.0000
     1.0000   1.0000   1.0000   1.0000   1.0000   1.0000   1.0000   1.0000
     1.0000   1.0000   1.0000   0.0000   0.0000   0.0000   0.0000   0.0000
     0.0000   0.0000   0.0000   0.0000   0.0000   0.0000   0.0000

          k = 0.2000-0.1155 0.1156 ( 11524 PWs)   bands (ev):

  -197.5331-197.3585-197.3585-143.1871-143.1871-137.0142-136.9863-136.9856
  -136.8387-136.8382-136.8039-136.8033-136.8032-136.8026 -81.2145 -81.2145
   -81.2145 -81.2145 -81.2090 -81.2090 -37.1867 -37.1826 -37.1803 -37.1535
   -37.1514 -36.9985 -36.9966 -36.9900 -36.9895 -36.9890 -36.9856 -36.9567
   -36.9561 -36.9550 -36.9537 -12.4965 -12.4934 -12.4839 -12.4819 -12.4778
   -12.4752 -12.4720 -12.4717 -12.4705 -12.4670  -3.4626  -2.7456  -1.8734
     0.2829   1.3119   6.8015   7.3836   7.6951   7.9962   8.5461   8.5916
     9.6013   9.7037  10.1593  11.6107  12.2199  12.5516  13.1591  13.4764
    13.8825  15.2736  16.9084  17.2064  17.6888  18.1844  18.7856

     occupation numbers 
     1.0000   1.0000   1.0000   1.0000   1.0000   1.0000   1.0000   1.0000
     1.0000   1.0000   1.0000   1.0000   1.0000   1.0000   1.0000   1.0000
     1.0000   1.0000   1.0000   1.0000   1.0000   1.0000   1.0000   1.0000
     1.0000   1.0000   1.0000   1.0000   1.0000   1.0000   1.0000   1.0000
     1.0000   1.0000   1.0000   1.0000   1.0000   1.0000   1.0000   1.0000
     1.0000   1.0000   1.0000   1.0000   1.0000   1.0000   1.0000   1.0000
     1.0000   1.0000   1.0000   1.0000   1.0000   1.0000   1.0000   1.0000
     1.0000   1.0000   1.0000   0.0000   0.0000   0.0000   0.0000   0.0000
     0.0000   0.0000   0.0000   0.0000   0.0000   0.0000   0.0000

          k = 0.2000-0.1155 0.2023 ( 11500 PWs)   bands (ev):

  -197.5331-197.3585-197.3584-143.1871-143.1871-137.0130-136.9852-136.9850
  -136.8377-136.8367-136.8033-136.8029-136.8022-136.8015 -81.2145 -81.2145
   -81.2145 -81.2145 -81.2090 -81.2090 -37.1843 -37.1801 -37.1793 -37.1516
   -37.1506 -36.9964 -36.9937 -36.9878 -36.9875 -36.9866 -36.9854 -36.9567
   -36.9549 -36.9523 -36.9521 -12.4965 -12.4934 -12.4839 -12.4819 -12.4778
   -12.4752 -12.4720 -12.4717 -12.4706 -12.4670  -3.4049  -2.9011  -1.7092
     0.1563   1.3665   6.7003   7.6580   7.7150   7.9810   8.5636   8.7189
     9.0420   9.7312  10.3558  11.4086  12.0534  12.8944  13.2780  13.6739
    13.7336  15.5801  16.6171  17.1188  17.6039  18.1376  18.8719

     occupation numbers 
     1.0000   1.0000   1.0000   1.0000   1.0000   1.0000   1.0000   1.0000
     1.0000   1.0000   1.0000   1.0000   1.0000   1.0000   1.0000   1.0000
     1.0000   1.0000   1.0000   1.0000   1.0000   1.0000   1.0000   1.0000
     1.0000   1.0000   1.0000   1.0000   1.0000   1.0000   1.0000   1.0000
     1.0000   1.0000   1.0000   1.0000   1.0000   1.0000   1.0000   1.0000
     1.0000   1.0000   1.0000   1.0000   1.0000   1.0000   1.0000   1.0000
     1.0000   1.0000   1.0000   1.0000   1.0000   1.0000   1.0000   1.0000
     1.0000   1.0000   1.0001   0.0000   0.0000   0.0000   0.0000   0.0000
     0.0000   0.0000   0.0000   0.0000   0.0000   0.0000   0.0000

          k = 0.2000-0.1155-0.1445 ( 11522 PWs)   bands (ev):

  -197.5331-197.3585-197.3585-143.1871-143.1871-137.0141-136.9860-136.9857
  -136.8391-136.8375-136.8040-136.8039-136.8027-136.8023 -81.2145 -81.2145
   -81.2145 -81.2145 -81.2090 -81.2090 -37.1858 -37.1823 -37.1808 -37.1530
   -37.1518 -36.9979 -36.9954 -36.9909 -36.9891 -36.9883 -36.9867 -36.9568
   -36.9553 -36.9548 -36.9540 -12.4965 -12.4934 -12.4839 -12.4819 -12.4778
   -12.4752 -12.4720 -12.4717 -12.4706 -12.4670  -3.4419  -2.8055  -1.8183
     0.2814   1.2830   6.7356   7.5234   7.8786   7.9072   8.6135   8.7913
     9.2620   9.5043   9.9618  11.7464  12.1792  12.5713  13.4111  13.6391
    13.8651  15.5412  16.7119  16.9196  17.9567  18.3492  18.5466

     occupation numbers 
     1.0000   1.0000   1.0000   1.0000   1.0000   1.0000   1.0000   1.0000
     1.0000   1.0000   1.0000   1.0000   1.0000   1.0000   1.0000   1.0000
     1.0000   1.0000   1.0000   1.0000   1.0000   1.0000   1.0000   1.0000
     1.0000   1.0000   1.0000   1.0000   1.0000   1.0000   1.0000   1.0000
     1.0000   1.0000   1.0000   1.0000   1.0000   1.0000   1.0000   1.0000
     1.0000   1.0000   1.0000   1.0000   1.0000   1.0000   1.0000   1.0000
     1.0000   1.0000   1.0000   1.0000   1.0000   1.0000   1.0000   1.0000
     1.0000   1.0000   1.0000   0.0000   0.0000   0.0000   0.0000   0.0000
     0.0000   0.0000   0.0000   0.0000   0.0000   0.0000   0.0000

          k = 0.2000-0.1155-0.0578 ( 11541 PWs)   bands (ev):

  -197.5331-197.3585-197.3585-143.1871-143.1871-137.0157-136.9866-136.9859
  -136.8402-136.8398-136.8042-136.8041-136.8037-136.8025 -81.2145 -81.2145
   -81.2145 -81.2145 -81.2090 -81.2090 -37.1883 -37.1838 -37.1834 -37.1530
   -37.1525 -36.9998 -36.9984 -36.9919 -36.9918 -36.9901 -36.9893 -36.9564
   -36.9557 -36.9552 -36.9551 -12.4965 -12.4934 -12.4839 -12.4819 -12.4777
   -12.4752 -12.4720 -12.4717 -12.4706 -12.4670  -3.5045  -2.5338  -2.1135
     0.5195   1.1314   6.8856   7.3494   7.6223   7.8822   8.8965   9.0268
     9.2293   9.4389   9.8250  12.0421  12.2390  12.4566  13.1599  13.3766
    14.0857  15.2435  16.6204  17.6438  17.8949  18.5190  18.9703

     occupation numbers 
     1.0000   1.0000   1.0000   1.0000   1.0000   1.0000   1.0000   1.0000
     1.0000   1.0000   1.0000   1.0000   1.0000   1.0000   1.0000   1.0000
     1.0000   1.0000   1.0000   1.0000   1.0000   1.0000   1.0000   1.0000
     1.0000   1.0000   1.0000   1.0000   1.0000   1.0000   1.0000   1.0000
     1.0000   1.0000   1.0000   1.0000   1.0000   1.0000   1.0000   1.0000
     1.0000   1.0000   1.0000   1.0000   1.0000   1.0000   1.0000   1.0000
     1.0000   1.0000   1.0000   1.0000   1.0000   1.0000   1.0000   1.0000
     1.0000   1.0000   1.0000   0.0000   0.0000   0.0000   0.0000   0.0000
     0.0000   0.0000   0.0000   0.0000   0.0000   0.0000   0.0000

          k = 0.2667-0.1540 0.0385 ( 11537 PWs)   bands (ev):

  -197.5331-197.3585-197.3585-143.1871-143.1871-137.0143-136.9875-136.9862
  -136.8394-136.8376-136.8067-136.8042-136.8030-136.8028 -81.2145 -81.2145
   -81.2145 -81.2145 -81.2090 -81.2090 -37.1887 -37.1812 -37.1810 -37.1559
   -37.1535 -37.0017 -36.9971 -36.9910 -36.9901 -36.9864 -36.9857 -36.9606
   -36.9579 -36.9568 -36.9547 -12.4995 -12.4955 -12.4808 -12.4791 -12.4768
   -12.4756 -12.4723 -12.4703 -12.4674 -12.4670  -3.2595  -2.3323  -1.9899
     0.3225   0.9467   6.3431   6.9876   7.1539   7.6877   8.3885   8.4396
     9.5189   9.5365   9.9980  11.6396  12.3815  12.4040  13.4664  13.6314
    14.5070  14.7157  16.9950  17.4634  18.5369  18.7942  19.0431

     occupation numbers 
     1.0000   1.0000   1.0000   1.0000   1.0000   1.0000   1.0000   1.0000
     1.0000   1.0000   1.0000   1.0000   1.0000   1.0000   1.0000   1.0000
     1.0000   1.0000   1.0000   1.0000   1.0000   1.0000   1.0000   1.0000
     1.0000   1.0000   1.0000   1.0000   1.0000   1.0000   1.0000   1.0000
     1.0000   1.0000   1.0000   1.0000   1.0000   1.0000   1.0000   1.0000
     1.0000   1.0000   1.0000   1.0000   1.0000   1.0000   1.0000   1.0000
     1.0000   1.0000   1.0000   1.0000   1.0000   1.0000   1.0000   1.0000
     1.0000   1.0000   1.0000   0.0000   0.0000   0.0000   0.0000   0.0000
     0.0000   0.0000   0.0000   0.0000   0.0000   0.0000   0.0000

          k = 0.2667-0.1540 0.1252 ( 11530 PWs)   bands (ev):

  -197.5331-197.3585-197.3585-143.1871-143.1871-137.0136-136.9880-136.9855
  -136.8384-136.8373-136.8064-136.8042-136.8031-136.8026 -81.2145 -81.2145
   -81.2145 -81.2145 -81.2090 -81.2090 -37.1864 -37.1817 -37.1810 -37.1549
   -37.1537 -36.9985 -36.9959 -36.9893 -36.9892 -36.9884 -36.9873 -36.9592
   -36.9577 -36.9561 -36.9553 -12.4995 -12.4955 -12.4808 -12.4791 -12.4768
   -12.4756 -12.4723 -12.4702 -12.4674 -12.4670  -3.2063  -2.5769  -1.7354
     0.1785   1.0251   6.3405   6.9431   7.3333   7.7456   8.0348   8.2869
     9.7222   9.7623  10.3545  11.2262  12.0922  12.2280  13.6873  13.8877
    14.4583  14.9755  16.4912  17.4313  18.2902  18.6955  19.3828

     occupation numbers 
     1.0000   1.0000   1.0000   1.0000   1.0000   1.0000   1.0000   1.0000
     1.0000   1.0000   1.0000   1.0000   1.0000   1.0000   1.0000   1.0000
     1.0000   1.0000   1.0000   1.0000   1.0000   1.0000   1.0000   1.0000
     1.0000   1.0000   1.0000   1.0000   1.0000   1.0000   1.0000   1.0000
     1.0000   1.0000   1.0000   1.0000   1.0000   1.0000   1.0000   1.0000
     1.0000   1.0000   1.0000   1.0000   1.0000   1.0000   1.0000   1.0000
     1.0000   1.0000   1.0000   1.0000   1.0000   1.0000   1.0000   1.0000
     1.0000   1.0000   1.0000   0.0000   0.0000   0.0000   0.0000   0.0000
     0.0000   0.0000   0.0000   0.0000   0.0000   0.0000   0.0000

          k = 0.2667-0.1540 0.2119 ( 11527 PWs)   bands (ev):

[...]
     8.4787   9.3206   9.9296  11.9948  12.2444  13.1038  14.1274  14.2096
    14.6904  15.4551  17.3738  17.6200  18.4521  19.5292  19.7499

     occupation numbers 
     1.0000   1.0000   1.0000   1.0000   1.0000   1.0000   1.0000   1.0000
     1.0000   1.0000   1.0000   1.0000   1.0000   1.0000   1.0000   1.0000
     1.0000   1.0000   1.0000   1.0000   1.0000   1.0000   1.0000   1.0000
     1.0000   1.0000   1.0000   1.0000   1.0000   1.0000   1.0000   1.0000
     1.0000   1.0000   1.0000   1.0000   1.0000   1.0000   1.0000   1.0000
     1.0000   1.0000   1.0000   1.0000   1.0000   1.0000   1.0000   1.0000
     1.0000   1.0000   1.0000   1.0000   1.0000   1.0000   1.0000   1.0000
     1.0000   1.0000   1.0000   0.0000   0.0000   0.0000   0.0000   0.0000
     0.0000   0.0000   0.0000   0.0000   0.0000   0.0000   0.0000

          k =-0.6667 0.0000-0.0000 ( 11569 PWs)   bands (ev):

  -197.5331-197.3585-197.3585-143.1871-143.1871-137.0145-136.9888-136.9886
  -136.8394-136.8382-136.8067-136.8064-136.8058-136.8055 -81.2145 -81.2145
   -81.2145 -81.2145 -81.2090 -81.2090 -37.1911 -37.1818 -37.1817 -37.1589
   -37.1584 -37.0024 -37.0013 -36.9908 -36.9892 -36.9890 -36.9869 -36.9623
   -36.9619 -36.9614 -36.9606 -12.4921 -12.4878 -12.4878 -12.4800 -12.4750
   -12.4748 -12.4748 -12.4719 -12.4624 -12.4623  -2.1508  -1.6269  -1.6268
    -0.2258  -0.2021   5.7187   5.8967   6.1514   6.7362   7.5210   7.6986
     8.8282   9.0461   9.9568  11.7196  12.8089  12.8194  14.3023  14.3305
    14.8174  17.1210  17.6091  17.6178  18.0704  18.2479  20.0521

     occupation numbers 
     1.0000   1.0000   1.0000   1.0000   1.0000   1.0000   1.0000   1.0000
     1.0000   1.0000   1.0000   1.0000   1.0000   1.0000   1.0000   1.0000
     1.0000   1.0000   1.0000   1.0000   1.0000   1.0000   1.0000   1.0000
     1.0000   1.0000   1.0000   1.0000   1.0000   1.0000   1.0000   1.0000
     1.0000   1.0000   1.0000   1.0000   1.0000   1.0000   1.0000   1.0000
     1.0000   1.0000   1.0000   1.0000   1.0000   1.0000   1.0000   1.0000
     1.0000   1.0000   1.0000   1.0000   1.0000   1.0000   1.0000   1.0000
     1.0000   1.0000   1.0000   0.0000   0.0000   0.0000   0.0000   0.0000
     0.0000   0.0000   0.0000   0.0000   0.0000   0.0000   0.0000

          k =-0.6667 0.0000 0.0867 ( 11560 PWs)   bands (ev):

  -197.5331-197.3585-197.3585-143.1871-143.1871-137.0143-136.9886-136.9881
  -136.8391-136.8379-136.8066-136.8060-136.8054-136.8049 -81.2145 -81.2145
   -81.2145 -81.2145 -81.2090 -81.2090 -37.1900 -37.1821 -37.1814 -37.1583
   -37.1573 -37.0008 -37.0005 -36.9917 -36.9903 -36.9871 -36.9865 -36.9624
   -36.9616 -36.9601 -36.9590 -12.4921 -12.4878 -12.4878 -12.4800 -12.4750
   -12.4748 -12.4748 -12.4719 -12.4624 -12.4623  -2.1507  -1.6269  -1.6267
    -0.2257  -0.2021   5.7053   5.9721   6.0586   6.8509   7.2458   8.0684
     8.4222   9.4221   9.7820  11.8504  12.4201  13.1765  14.0334  14.6049
    14.7405  17.1222  17.5621  17.6875  17.9912  18.3201  19.6449

     occupation numbers 
     1.0000   1.0000   1.0000   1.0000   1.0000   1.0000   1.0000   1.0000
     1.0000   1.0000   1.0000   1.0000   1.0000   1.0000   1.0000   1.0000
     1.0000   1.0000   1.0000   1.0000   1.0000   1.0000   1.0000   1.0000
     1.0000   1.0000   1.0000   1.0000   1.0000   1.0000   1.0000   1.0000
     1.0000   1.0000   1.0000   1.0000   1.0000   1.0000   1.0000   1.0000
     1.0000   1.0000   1.0000   1.0000   1.0000   1.0000   1.0000   1.0000
     1.0000   1.0000   1.0000   1.0000   1.0000   1.0000   1.0000   1.0000
     1.0000   1.0000   1.0000   0.0000   0.0000   0.0000   0.0000   0.0000
     0.0000   0.0000   0.0000   0.0000   0.0000   0.0000   0.0000

          k =-0.6667 0.0000 0.1734 ( 11563 PWs)   bands (ev):

  -197.5331-197.3585-197.3585-143.1871-143.1871-137.0143-136.9889-136.9882
  -136.8390-136.8379-136.8066-136.8063-136.8057-136.8049 -81.2145 -81.2145
   -81.2145 -81.2145 -81.2090 -81.2090 -37.1903 -37.1823 -37.1808 -37.1588
   -37.1577 -37.0017 -37.0003 -36.9911 -36.9896 -36.9877 -36.9867 -36.9624
   -36.9620 -36.9610 -36.9593 -12.4921 -12.4878 -12.4878 -12.4800 -12.4750
   -12.4748 -12.4748 -12.4719 -12.4624 -12.4623  -2.1508  -1.6269  -1.6268
    -0.2257  -0.2021   5.7130   5.9190   6.1223   6.7752   7.3871   7.8549
     8.6520   9.2168   9.9034  11.7640  12.5903  13.0294  14.1526  14.4763
    14.7968  17.1214  17.5801  17.6547  18.0364  18.2799  19.7359

     occupation numbers 
     1.0000   1.0000   1.0000   1.0000   1.0000   1.0000   1.0000   1.0000
     1.0000   1.0000   1.0000   1.0000   1.0000   1.0000   1.0000   1.0000
     1.0000   1.0000   1.0000   1.0000   1.0000   1.0000   1.0000   1.0000
     1.0000   1.0000   1.0000   1.0000   1.0000   1.0000   1.0000   1.0000
     1.0000   1.0000   1.0000   1.0000   1.0000   1.0000   1.0000   1.0000
     1.0000   1.0000   1.0000   1.0000   1.0000   1.0000   1.0000   1.0000
     1.0000   1.0000   1.0000   1.0000   1.0000   1.0000   1.0000   1.0000
     1.0000   1.0000   1.0000   0.0000   0.0000   0.0000   0.0000   0.0000
     0.0000   0.0000   0.0000   0.0000   0.0000   0.0000   0.0000

          k = 0.0000-0.5389 0.1349 ( 11548 PWs)   bands (ev):

  -197.5331-197.3585-197.3585-143.1871-143.1871-137.0135-136.9893-136.9868
  -136.8384-136.8371-136.8079-136.8054-136.8044-136.8040 -81.2145 -81.2145
   -81.2145 -81.2145 -81.2090 -81.2090 -37.1881 -37.1814 -37.1810 -37.1608
   -37.1537 -36.9997 -36.9979 -36.9906 -36.9884 -36.9880 -36.9867 -36.9651
   -36.9624 -36.9578 -36.9553 -12.5069 -12.5009 -12.4868 -12.4805 -12.4768
   -12.4705 -12.4646 -12.4632 -12.4627 -12.4595  -2.4007  -1.9742  -1.6910
    -0.2704   0.3648   5.3584   6.2720   6.5159   7.1302   8.5357   8.6602
     8.6827   8.7163   9.5764  11.5322  12.6828  12.8111  13.4596  13.7088
    13.9730  15.4044  17.0842  17.6035  20.0637  20.4285  20.8498

     occupation numbers 
     1.0000   1.0000   1.0000   1.0000   1.0000   1.0000   1.0000   1.0000
     1.0000   1.0000   1.0000   1.0000   1.0000   1.0000   1.0000   1.0000
     1.0000   1.0000   1.0000   1.0000   1.0000   1.0000   1.0000   1.0000
     1.0000   1.0000   1.0000   1.0000   1.0000   1.0000   1.0000   1.0000
     1.0000   1.0000   1.0000   1.0000   1.0000   1.0000   1.0000   1.0000
     1.0000   1.0000   1.0000   1.0000   1.0000   1.0000   1.0000   1.0000
     1.0000   1.0000   1.0000   1.0000   1.0000   1.0000   1.0000   1.0000
     1.0000   1.0000   1.0000   0.0000   0.0000   0.0000   0.0000   0.0000
     0.0000   0.0000   0.0000   0.0000   0.0000   0.0000   0.0000

          k = 0.0000-0.5389 0.2215 ( 11569 PWs)   bands (ev):

  -197.5331-197.3585-197.3585-143.1871-143.1871-137.0149-136.9894-136.9878
  -136.8397-136.8386-136.8080-136.8060-136.8055-136.8043 -81.2145 -81.2145
   -81.2145 -81.2145 -81.2090 -81.2090 -37.1907 -37.1835 -37.1823 -37.1617
   -37.1547 -37.0024 -37.0001 -36.9922 -36.9912 -36.9891 -36.9878 -36.9667
   -36.9624 -36.9600 -36.9551 -12.5069 -12.5009 -12.4868 -12.4804 -12.4768
   -12.4705 -12.4646 -12.4632 -12.4627 -12.4595  -2.3930  -1.9827  -1.7034
    -0.2013   0.3020   5.3400   6.2950   6.6440   7.1701   7.9678   8.2570
     9.1591   9.2937   9.4562  11.6124  12.2981  12.4511  13.6253  14.0384
    14.2362  15.3564  16.3370  18.5532  20.0282  20.3049  20.9241

     occupation numbers 
     1.0000   1.0000   1.0000   1.0000   1.0000   1.0000   1.0000   1.0000
     1.0000   1.0000   1.0000   1.0000   1.0000   1.0000   1.0000   1.0000
     1.0000   1.0000   1.0000   1.0000   1.0000   1.0000   1.0000   1.0000
     1.0000   1.0000   1.0000   1.0000   1.0000   1.0000   1.0000   1.0000
     1.0000   1.0000   1.0000   1.0000   1.0000   1.0000   1.0000   1.0000
     1.0000   1.0000   1.0000   1.0000   1.0000   1.0000   1.0000   1.0000
     1.0000   1.0000   1.0000   1.0000   1.0000   1.0000   1.0000   1.0000
     1.0000   1.0000   1.0000   0.0000   0.0000   0.0000   0.0000   0.0000
     0.0000   0.0000   0.0000   0.0000   0.0000   0.0000   0.0000

          k = 0.0000-0.5389 0.3082 ( 11547 PWs)   bands (ev):

  -197.5331-197.3585-197.3585-143.1871-143.1871-137.0133-136.9890-136.9871
  -136.8379-136.8372-136.8068-136.8059-136.8049-136.8040 -81.2145 -81.2145
   -81.2145 -81.2145 -81.2090 -81.2090 -37.1892 -37.1802 -37.1801 -37.1603
   -37.1547 -37.0008 -36.9992 -36.9884 -36.9877 -36.9868 -36.9859 -36.9637
   -36.9627 -36.9594 -36.9560 -12.5070 -12.5009 -12.4869 -12.4804 -12.4768
   -12.4705 -12.4646 -12.4632 -12.4628 -12.4594  -2.3954  -1.9824  -1.7045
    -0.1450   0.2439   5.1218   6.7595   7.0138   7.2673   7.4592   7.9395
     8.5949   9.5496   9.9931  11.3894  12.0061  12.7341  13.8231  14.3936
    14.4413  14.8508  15.9124  19.3599  20.1893  20.3065  20.7140

     occupation numbers 
     1.0000   1.0000   1.0000   1.0000   1.0000   1.0000   1.0000   1.0000
     1.0000   1.0000   1.0000   1.0000   1.0000   1.0000   1.0000   1.0000
     1.0000   1.0000   1.0000   1.0000   1.0000   1.0000   1.0000   1.0000
     1.0000   1.0000   1.0000   1.0000   1.0000   1.0000   1.0000   1.0000
     1.0000   1.0000   1.0000   1.0000   1.0000   1.0000   1.0000   1.0000
     1.0000   1.0000   1.0000   1.0000   1.0000   1.0000   1.0000   1.0000
     1.0000   1.0000   1.0000   1.0000   1.0000   1.0000   1.0000   1.0000
     1.0000   1.0000   1.0000   0.0000   0.0000   0.0000   0.0000   0.0000
     0.0000   0.0000   0.0000   0.0000   0.0000   0.0000   0.0000

          k = 0.0000-0.5389-0.0385 ( 11549 PWs)   bands (ev):

  -197.5331-197.3585-197.3585-143.1871-143.1871-137.0141-136.9888-136.9868
  -136.8385-136.8381-136.8070-136.8053-136.8045-136.8038 -81.2145 -81.2145
   -81.2145 -81.2145 -81.2090 -81.2090 -37.1899 -37.1811 -37.1805 -37.1596
   -37.1540 -37.0012 -37.0001 -36.9898 -36.9891 -36.9876 -36.9854 -36.9637
   -36.9615 -36.9583 -36.9553 -12.5070 -12.5008 -12.4869 -12.4804 -12.4768
   -12.4705 -12.4646 -12.4632 -12.4628 -12.4594  -2.4046  -1.9740  -1.6932
    -0.1972   0.2889   5.0367   6.8263   7.2753   7.3759   7.5390   7.9226
     8.0069   9.5675  10.0315  11.3630  11.9941  13.3436  13.6797  14.3452
    14.3920  14.5446  15.9809  19.2179  20.4786  20.5264  20.6992

     occupation numbers 
     1.0000   1.0000   1.0000   1.0000   1.0000   1.0000   1.0000   1.0000
     1.0000   1.0000   1.0000   1.0000   1.0000   1.0000   1.0000   1.0000
     1.0000   1.0000   1.0000   1.0000   1.0000   1.0000   1.0000   1.0000
     1.0000   1.0000   1.0000   1.0000   1.0000   1.0000   1.0000   1.0000
     1.0000   1.0000   1.0000   1.0000   1.0000   1.0000   1.0000   1.0000
     1.0000   1.0000   1.0000   1.0000   1.0000   1.0000   1.0000   1.0000
     1.0000   1.0000   1.0000   1.0000   1.0000   1.0000   1.0000   1.0000
     1.0000   1.0000   1.0000   0.0000   0.0000   0.0000   0.0000   0.0000
     0.0000   0.0000   0.0000   0.0000   0.0000   0.0000   0.0000

          k = 0.0000-0.5389 0.0482 ( 11558 PWs)   bands (ev):

  -197.5331-197.3585-197.3585-143.1871-143.1871-137.0151-136.9886-136.9871
  -136.8401-136.8386-136.8063-136.8054-136.8049-136.8039 -81.2145 -81.2145
   -81.2145 -81.2145 -81.2090 -81.2090 -37.1907 -37.1828 -37.1820 -37.1595
   -37.1533 -37.0017 -37.0010 -36.9915 -36.9898 -36.9888 -36.9884 -36.9628
   -36.9622 -36.9574 -36.9548 -12.5069 -12.5009 -12.4868 -12.4804 -12.4768
   -12.4705 -12.4646 -12.4632 -12.4628 -12.4595  -2.4078  -1.9692  -1.6845
    -0.2692   0.3579   5.1374   6.5923   6.8289   7.1783   7.9391   8.2221
     8.7884   9.1975   9.3637  11.9514  12.4317  12.6013  13.6522  14.0397
    14.1640  14.9690  16.4979  18.3419  20.2191  20.4493  20.7952

     occupation numbers 
     1.0000   1.0000   1.0000   1.0000   1.0000   1.0000   1.0000   1.0000
     1.0000   1.0000   1.0000   1.0000   1.0000   1.0000   1.0000   1.0000
     1.0000   1.0000   1.0000   1.0000   1.0000   1.0000   1.0000   1.0000
     1.0000   1.0000   1.0000   1.0000   1.0000   1.0000   1.0000   1.0000
     1.0000   1.0000   1.0000   1.0000   1.0000   1.0000   1.0000   1.0000
     1.0000   1.0000   1.0000   1.0000   1.0000   1.0000   1.0000   1.0000
     1.0000   1.0000   1.0000   1.0000   1.0000   1.0000   1.0000   1.0000
     1.0000   1.0000   1.0000   0.0000   0.0000   0.0000   0.0000   0.0000
     0.0000   0.0000   0.0000   0.0000   0.0000   0.0000   0.0000

          k =-0.9333 0.0000 0.0000 ( 11548 PWs)   bands (ev):

  -197.5331-197.3585-197.3585-143.1871-143.1871-137.0141-136.9880-136.9875
  -136.8389-136.8377-136.8062-136.8057-136.8044-136.8041 -81.2145 -81.2145
   -81.2145 -81.2145 -81.2090 -81.2090 -37.1877 -37.1839 -37.1804 -37.1615
   -37.1512 -36.9990 -36.9978 -36.9921 -36.9904 -36.9892 -36.9861 -36.9659
   -36.9628 -36.9549 -36.9533 -12.5060 -12.5000 -12.4864 -12.4803 -12.4775
   -12.4710 -12.4649 -12.4637 -12.4624 -12.4595  -2.3456  -1.9552  -1.6697
    -0.2968   0.3141   5.4160   6.2012   6.5297   7.0815   7.8822   8.0901
     9.2562   9.3007   9.7385  11.4030  12.3644  12.4611  13.8754  13.9308
    14.1017  15.4496  17.2003  17.6688  19.9545  20.1825  20.7351

     occupation numbers 
     1.0000   1.0000   1.0000   1.0000   1.0000   1.0000   1.0000   1.0000
     1.0000   1.0000   1.0000   1.0000   1.0000   1.0000   1.0000   1.0000
     1.0000   1.0000   1.0000   1.0000   1.0000   1.0000   1.0000   1.0000
     1.0000   1.0000   1.0000   1.0000   1.0000   1.0000   1.0000   1.0000
     1.0000   1.0000   1.0000   1.0000   1.0000   1.0000   1.0000   1.0000
     1.0000   1.0000   1.0000   1.0000   1.0000   1.0000   1.0000   1.0000
     1.0000   1.0000   1.0000   1.0000   1.0000   1.0000   1.0000   1.0000
     1.0000   1.0000   1.0000   0.0000   0.0000   0.0000   0.0000   0.0000
     0.0000   0.0000   0.0000   0.0000   0.0000   0.0000   0.0000

          k =-0.9333 0.0000 0.0867 ( 11550 PWs)   bands (ev):

  -197.5331-197.3585-197.3585-143.1871-143.1871-137.0145-136.9886-136.9868
  -136.8393-136.8381-136.8064-136.8056-136.8044-136.8037 -81.2145 -81.2145
   -81.2145 -81.2145 -81.2090 -81.2090 -37.1893 -37.1820 -37.1819 -37.1601
   -37.1523 -37.0003 -36.9996 -36.9911 -36.9904 -36.9881 -36.9872 -36.9635
   -36.9626 -36.9556 -36.9546 -12.5061 -12.5000 -12.4865 -12.4803 -12.4775
   -12.4710 -12.4649 -12.4638 -12.4624 -12.4594  -2.3470  -1.9479  -1.6820
    -0.2600   0.2814   5.2435   6.5136   6.6040   7.1020   7.6028   8.5547
     8.6777   9.1606   9.8304  11.6222  12.1674  12.8235  13.5482  14.2122
    14.2881  15.1961  16.5200  18.4887  20.0043  20.2128  20.6133

     occupation numbers 
     1.0000   1.0000   1.0000   1.0000   1.0000   1.0000   1.0000   1.0000
     1.0000   1.0000   1.0000   1.0000   1.0000   1.0000   1.0000   1.0000
     1.0000   1.0000   1.0000   1.0000   1.0000   1.0000   1.0000   1.0000
     1.0000   1.0000   1.0000   1.0000   1.0000   1.0000   1.0000   1.0000
     1.0000   1.0000   1.0000   1.0000   1.0000   1.0000   1.0000   1.0000
     1.0000   1.0000   1.0000   1.0000   1.0000   1.0000   1.0000   1.0000
     1.0000   1.0000   1.0000   1.0000   1.0000   1.0000   1.0000   1.0000
     1.0000   1.0000   1.0000   0.0000   0.0000   0.0000   0.0000   0.0000
     0.0000   0.0000   0.0000   0.0000   0.0000   0.0000   0.0000

          k =-0.9333 0.0000 0.1734 ( 11534 PWs)   bands (ev):

  -197.5331-197.3585-197.3585-143.1871-143.1871-137.0137-136.9883-136.9859
  -136.8383-136.8375-136.8062-136.8052-136.8037-136.8029 -81.2145 -81.2145
   -81.2145 -81.2145 -81.2090 -81.2090 -37.1879 -37.1815 -37.1800 -37.1590
   -37.1516 -36.9988 -36.9985 -36.9895 -36.9890 -36.9882 -36.9849 -36.9631
   -36.9608 -36.9557 -36.9532 -12.5061 -12.4999 -12.4865 -12.4802 -12.4775
   -12.4711 -12.4649 -12.4638 -12.4625 -12.4593  -2.3491  -1.9350  -1.7027
    -0.1895   0.2171   5.0692   6.6850   6.9287   7.2331   7.7246   8.0826
     8.3474   9.1217   9.8953  11.5537  12.3671  13.1008  13.7425  14.1722
    14.6096  14.6660  15.9556  19.2151  20.1906  20.4090  20.6916

     occupation numbers 
     1.0000   1.0000   1.0000   1.0000   1.0000   1.0000   1.0000   1.0000
     1.0000   1.0000   1.0000   1.0000   1.0000   1.0000   1.0000   1.0000
     1.0000   1.0000   1.0000   1.0000   1.0000   1.0000   1.0000   1.0000
     1.0000   1.0000   1.0000   1.0000   1.0000   1.0000   1.0000   1.0000
     1.0000   1.0000   1.0000   1.0000   1.0000   1.0000   1.0000   1.0000
     1.0000   1.0000   1.0000   1.0000   1.0000   1.0000   1.0000   1.0000
     1.0000   1.0000   1.0000   1.0000   1.0000   1.0000   1.0000   1.0000
     1.0000   1.0000   1.0000   0.0000   0.0000   0.0000   0.0000   0.0000
     0.0000   0.0000   0.0000   0.0000   0.0000   0.0000   0.0000

     the Fermi energy is    10.7216 ev

!    total energy              =   -2956.61711516 Ry
     estimated scf accuracy    <          9.0E-10 Ry
     smearing contrib. (-TS)   =      -0.00000180 Ry
     internal energy E=F+TS    =   -2956.61711335 Ry

     The total energy is F=E-TS. E is the sum of the following terms:
     one-electron contribution =   -2376.88755564 Ry
     hartree contribution      =    1102.72515341 Ry
     xc contribution           =    -312.75888545 Ry
     ewald contribution        =   -1369.69582567 Ry

     convergence has been achieved in  10 iterations

     Writing output data file ./wfc-out/bi2se3.save/
 
     init_run     :      4.24s CPU      4.51s WALL (       1 calls)
     electrons    :    184.27s CPU    192.00s WALL (       1 calls)

     Called by init_run:
     wfcinit      :      3.74s CPU      3.89s WALL (       1 calls)
     wfcinit:atom :      0.02s CPU      0.02s WALL (     117 calls)
     wfcinit:wfcr :      3.69s CPU      3.83s WALL (     117 calls)
     potinit      :      0.13s CPU      0.14s WALL (       1 calls)
     hinit0       :      0.28s CPU      0.38s WALL (       1 calls)

     Called by electrons:
     c_bands      :    170.65s CPU    173.24s WALL (      11 calls)
     sum_band     :     13.39s CPU     13.75s WALL (      11 calls)
     v_of_rho     :      0.13s CPU      0.15s WALL (      11 calls)
     v_h          :      0.01s CPU      0.01s WALL (      11 calls)
     v_xc         :      0.12s CPU      0.14s WALL (      11 calls)
     mix_rho      :      0.03s CPU      0.03s WALL (      11 calls)

     Called by c_bands:
     init_us_2    :      0.52s CPU      0.56s WALL (    2691 calls)
     cegterg      :    161.93s CPU    163.83s WALL (    1287 calls)

     Called by sum_band:
     sum_band:wei :      0.06s CPU      0.07s WALL (      11 calls)
     sum_band:loo :     13.11s CPU     13.45s WALL (      11 calls)
     sum_band:buf :      0.10s CPU      0.10s WALL (    1287 calls)
     sum_band:ini :      0.19s CPU      0.20s WALL (    1287 calls)

     Called by *egterg:
     cdiaghg      :     41.25s CPU     41.42s WALL (    6188 calls)
     cegterg:over :     16.36s CPU     16.41s WALL (    5018 calls)
     cegterg:upda :      6.40s CPU      6.43s WALL (    5018 calls)
     cegterg:last :     11.43s CPU     11.48s WALL (    2574 calls)
     h_psi        :     78.06s CPU     79.77s WALL (    6422 calls)
     g_psi        :      0.18s CPU      0.18s WALL (    5018 calls)

     Called by h_psi:
     h_psi:calbec :      9.73s CPU      9.84s WALL (    6422 calls)
     vloc_psi     :     60.95s CPU     62.52s WALL (    6422 calls)
     add_vuspsi   :      7.04s CPU      7.07s WALL (    6422 calls)

     General routines
     calbec       :      9.71s CPU      9.83s WALL (    6422 calls)
     fft          :      0.28s CPU      0.38s WALL (     131 calls)
     ffts         :      0.01s CPU      0.02s WALL (      22 calls)
     fftw         :     69.93s CPU     71.73s WALL (  535061 calls)
     interpolate  :      0.01s CPU      0.02s WALL (      11 calls)
 
     Parallel routines
     fft_scatt_xy :      4.46s CPU      4.58s WALL (  535214 calls)
     fft_scatt_yz :     39.44s CPU     40.52s WALL (  535214 calls)
 
     PWSCF        :   3m11.96s CPU   4m48.87s WALL

 
   This run was terminated on:  21:38: 3   8May2023            

=------------------------------------------------------------------------------=
   JOB DONE.
=------------------------------------------------------------------------------=
