
     Program PWSCF v.6.6 starts on  6Mar2023 at 17: 4:20 

     This program is part of the open-source Quantum ESPRESSO suite
     for quantum simulation of materials; please cite
         "P. Giannozzi et al., J. Phys.:Condens. Matter 21 395502 (2009);
         "P. Giannozzi et al., J. Phys.:Condens. Matter 29 465901 (2017);
          URL http://www.quantum-espresso.org", 
     in publications or presentations arising from this work. More details at
     http://www.quantum-espresso.org/quote

     Parallel version (MPI), running on    24 processors

     MPI processes distributed on     1 nodes
     R & G space division:  proc/nbgrp/npool/nimage =      24
     Fft bands division:     nmany     =       1
     Reading input from INCAR-scf.pw

     Current dimensions of program PWSCF are:
     Max number of different atomic species (ntypx) = 10
     Max number of k-points (npk) =  40000
     Max angular momentum in pseudopotentials (lmaxx) =  3

     Subspace diagonalization in iterative solution of the eigenvalue problem:
     a serial algorithm will be used

 
     Parallelization info
     --------------------
     sticks:   dense  smooth     PW     G-vecs:    dense   smooth      PW
     Min         509     203     56                26187     6623     952
     Max         510     204     57                26189     6625     954
     Sum       12227    4873   1345               628515   158977   22885
 


     bravais-lattice index     =            0
     lattice parameter (alat)  =      12.1557  a.u.
     unit-cell volume          =    2532.0349 (a.u.)^3
     number of atoms/cell      =           32
     number of atomic types    =            3
     number of electrons       =       128.00
     number of Kohn-Sham states=           77
     kinetic-energy cutoff     =      60.0000  Ry
     charge density cutoff     =     600.0000  Ry
     convergence threshold     =      1.0E-10
     mixing beta               =       0.7000
     number of iterations used =            8  plain     mixing
     Exchange-correlation= LDA
                           (   1   1   0   0   0   0   0)

     celldm(1)=  12.155663  celldm(2)=   0.000000  celldm(3)=   0.000000
     celldm(4)=   0.000000  celldm(5)=   0.000000  celldm(6)=   0.000000

     crystal axes: (cart. coord. in units of alat)
               a(1) = (   1.000000   0.000000   0.000000 )  
               a(2) = (   0.000000   1.732079   0.000000 )  
               a(3) = (   0.000000   0.000000   0.813890 )  

     reciprocal axes: (cart. coord. in units 2 pi/alat)
               b(1) = (  1.000000  0.000000  0.000000 )  
               b(2) = (  0.000000  0.577341  0.000000 )  
               b(3) = (  0.000000  0.000000  1.228667 )  


     PseudoPot. # 1 for Al read from file:
     ./Al.pz-n-rrkjus_psl.0.1.UPF
     MD5 check sum: 3b788946f5b2ec323a58a29a5ff2368a
     Pseudo is Ultrasoft + core correction, Zval =  3.0
     Generated using "atomic" code by A. Dal Corso v.5.0.2 svn rev. 9415
     Using radial grid of 1135 points,  4 beta functions with: 
                l(1) =   0
                l(2) =   0
                l(3) =   1
                l(4) =   1
     Q(r) pseudized with 0 coefficients 


     PseudoPot. # 2 for N  read from file:
     ./N.pz-n-rrkjus_psl.0.1.UPF
     MD5 check sum: 5663b752f1eef59ba9d503062cb6a42c
     Pseudo is Ultrasoft + core correction, Zval =  5.0
     Generated using "atomic" code by A. Dal Corso v.5.0.2 svn rev. 9415
     Using radial grid of 1085 points,  4 beta functions with: 
                l(1) =   0
                l(2) =   0
                l(3) =   1
                l(4) =   1
     Q(r) pseudized with 0 coefficients 


     PseudoPot. # 3 for B  read from file:
     ./B.pz-n-rrkjus_psl.0.1.UPF
     MD5 check sum: afbcbde2cf54223ea3a4e9251853ad92
     Pseudo is Ultrasoft + core correction, Zval =  3.0
     Generated using "atomic" code by A. Dal Corso v.5.0.2 svn rev. 9415
     Using radial grid of 1059 points,  4 beta functions with: 
                l(1) =   0
                l(2) =   0
                l(3) =   1
                l(4) =   1
     Q(r) pseudized with 0 coefficients 


     atomic species   valence    mass     pseudopotential
        Al             3.00    26.98154     Al( 1.00)
        N              5.00    14.00674     N ( 1.00)
        B              3.00    10.81100     B ( 1.00)

     No symmetry found



   Cartesian axes

     site n.     atom                  positions (alat units)
         1           Al  tau(   1) = (   0.1316730   0.2712142   0.4402537  )
         2           N   tau(   2) = (   0.1316730   0.2712142   0.7464490  )
         3           Al  tau(   3) = (   0.1316730   0.5598929   0.0329504  )
         4           N   tau(   4) = (   0.1316730   0.5598929   0.3398619  )
         5           Al  tau(   5) = (   0.3816730   0.7042323   0.4402537  )
         6           N   tau(   6) = (   0.3816730   0.7042323   0.7464490  )
         7           Al  tau(   7) = (   0.3816730   0.9929110   0.0329504  )
         8           N   tau(   8) = (   0.3816730   0.9929110   0.3398619  )
         9           Al  tau(   9) = (   0.1316730   1.1372503   0.4402537  )
        10           N   tau(  10) = (   0.1316730   1.1372503   0.7464490  )
        11           Al  tau(  11) = (   0.1316730   1.4259291   0.0329504  )
        12           N   tau(  12) = (   0.1316730   1.4259291   0.3398619  )
        13           Al  tau(  13) = (   0.3816730   1.5702684   0.4402537  )
        14           N   tau(  14) = (   0.3816730   1.5702684   0.7464490  )
        15           Al  tau(  15) = (   0.3816730   0.1268748   0.0329504  )
        16           N   tau(  16) = (   0.3816730   0.1268748   0.3398619  )
        17           Al  tau(  17) = (   0.6316730   0.2712142   0.4402537  )
        18           N   tau(  18) = (   0.6316730   0.2712142   0.7464490  )
        19           Al  tau(  19) = (   0.6316730   0.5598929   0.0329504  )
        20           N   tau(  20) = (   0.6316730   0.5598929   0.3398619  )
        21           B   tau(  21) = (   0.8816730   0.7042323   0.4402537  )
        22           N   tau(  22) = (   0.8816730   0.7042323   0.7464490  )
        23           Al  tau(  23) = (   0.8816730   0.9929110   0.0329504  )
        24           N   tau(  24) = (   0.8816730   0.9929110   0.3398619  )
        25           B   tau(  25) = (   0.6316730   1.1372503   0.4402537  )
        26           N   tau(  26) = (   0.6316730   1.1372503   0.7464490  )
        27           B   tau(  27) = (   0.6316730   1.4259291   0.0329504  )
        28           N   tau(  28) = (   0.6316730   1.4259291   0.3398619  )
        29           B   tau(  29) = (   0.8816730   1.5702684   0.4402537  )
        30           N   tau(  30) = (   0.8816730   1.5702684   0.7464490  )
        31           Al  tau(  31) = (   0.8816730   0.1268748   0.0329504  )
        32           N   tau(  32) = (   0.8816730   0.1268748   0.3398619  )

     number of k points=    31  Gaussian smearing, width (Ry)=  0.0100
                       cart. coord. in units 2pi/alat
        k(    1) = (   0.0000000   0.0000000   0.0000000), wk =   0.0333333
        k(    2) = (   0.0000000   0.0000000   0.2457333), wk =   0.0666667
        k(    3) = (   0.0000000   0.0000000   0.4914667), wk =   0.0666667
        k(    4) = (   0.0000000   0.1924469   0.0000000), wk =   0.0666667
        k(    5) = (   0.0000000   0.1924469   0.2457333), wk =   0.0666667
        k(    6) = (   0.0000000   0.1924469   0.4914667), wk =   0.0666667
        k(    7) = (   0.2500000   0.0000000   0.0000000), wk =   0.0666667
        k(    8) = (   0.2500000   0.0000000   0.2457333), wk =   0.0666667
        k(    9) = (   0.2500000   0.0000000   0.4914667), wk =   0.0666667
        k(   10) = (   0.2500000   0.1924469   0.0000000), wk =   0.0666667
        k(   11) = (   0.2500000   0.1924469   0.2457333), wk =   0.0666667
        k(   12) = (   0.2500000   0.1924469   0.4914667), wk =   0.0666667
        k(   13) = (  -0.5000000   0.0000000   0.0000000), wk =   0.0333333
        k(   14) = (  -0.5000000   0.0000000   0.2457333), wk =   0.0666667
        k(   15) = (  -0.5000000   0.0000000   0.4914667), wk =   0.0666667
        k(   16) = (  -0.5000000   0.1924469   0.0000000), wk =   0.0666667
        k(   17) = (  -0.5000000   0.1924469   0.2457333), wk =   0.0666667
        k(   18) = (  -0.5000000   0.1924469   0.4914667), wk =   0.0666667
        k(   19) = (   0.0000000  -0.1924469   0.2457333), wk =   0.0666667
        k(   20) = (   0.0000000  -0.1924469   0.4914667), wk =   0.0666667
        k(   21) = (  -0.2500000   0.0000000   0.2457333), wk =   0.0666667
        k(   22) = (  -0.2500000   0.0000000   0.4914667), wk =   0.0666667
        k(   23) = (  -0.2500000   0.1924469   0.0000000), wk =   0.0666667
        k(   24) = (  -0.2500000  -0.1924469   0.2457333), wk =   0.0666667
        k(   25) = (  -0.2500000   0.1924469  -0.2457333), wk =   0.0666667
        k(   26) = (   0.2500000  -0.1924469  -0.2457333), wk =   0.0666667
        k(   27) = (  -0.2500000  -0.1924469   0.4914667), wk =   0.0666667
        k(   28) = (  -0.2500000   0.1924469  -0.4914667), wk =   0.0666667
        k(   29) = (   0.2500000  -0.1924469  -0.4914667), wk =   0.0666667
        k(   30) = (   0.5000000  -0.1924469   0.2457333), wk =   0.0666667
        k(   31) = (   0.5000000  -0.1924469   0.4914667), wk =   0.0666667

     Dense  grid:   628515 G-vectors     FFT dimensions: (  96, 180,  80)

     Smooth grid:   158977 G-vectors     FFT dimensions: (  60, 108,  50)

     Estimated max dynamical RAM per process >      76.71 MB

     Estimated total dynamical RAM >       1.80 GB

     Check: negative core charge=   -0.000002

     Initial potential from superposition of free atoms

     starting charge  127.97455, renormalised to  128.00000
     Starting wfcs are  128 randomized atomic wfcs

     total cpu time spent up to now is        7.1 secs

     Self-consistent Calculation

     iteration #  1     ecut=    60.00 Ry     beta= 0.70
     Davidson diagonalization with overlap
     ethr =  1.00E-02,  avg # of iterations =  2.2

     total cpu time spent up to now is       18.3 secs

     total energy              =    -412.31394560 Ry
     estimated scf accuracy    <       8.21341209 Ry

     iteration #  2     ecut=    60.00 Ry     beta= 0.70
     Davidson diagonalization with overlap
     ethr =  6.42E-03,  avg # of iterations =  3.3

     total cpu time spent up to now is       33.4 secs

     total energy              =    -414.80411570 Ry
     estimated scf accuracy    <       8.58120678 Ry

     iteration #  3     ecut=    60.00 Ry     beta= 0.70
     Davidson diagonalization with overlap
     ethr =  6.42E-03,  avg # of iterations =  1.9

     total cpu time spent up to now is       42.7 secs

     total energy              =    -415.79848845 Ry
     estimated scf accuracy    <       0.79020703 Ry

     iteration #  4     ecut=    60.00 Ry     beta= 0.70
     Davidson diagonalization with overlap
     ethr =  6.17E-04,  avg # of iterations =  3.0

     total cpu time spent up to now is       56.5 secs

     total energy              =    -416.19733550 Ry
     estimated scf accuracy    <       0.03947814 Ry

     iteration #  5     ecut=    60.00 Ry     beta= 0.70
     Davidson diagonalization with overlap
     c_bands:  2 eigenvalues not converged
     c_bands:  1 eigenvalues not converged
     c_bands:  1 eigenvalues not converged
     c_bands:  1 eigenvalues not converged
     c_bands:  1 eigenvalues not converged
     c_bands:  1 eigenvalues not converged
     c_bands:  1 eigenvalues not converged
     c_bands:  2 eigenvalues not converged
     c_bands:  1 eigenvalues not converged
     c_bands:  2 eigenvalues not converged
     c_bands:  1 eigenvalues not converged
     c_bands:  1 eigenvalues not converged
     c_bands:  1 eigenvalues not converged
     c_bands:  1 eigenvalues not converged
     c_bands:  1 eigenvalues not converged
     c_bands:  1 eigenvalues not converged
     c_bands:  1 eigenvalues not converged
     c_bands:  1 eigenvalues not converged
     c_bands:  1 eigenvalues not converged
     c_bands:  1 eigenvalues not converged
     ethr =  3.08E-05,  avg # of iterations = 18.2

     total cpu time spent up to now is       87.5 secs

     total energy              =    -416.23384026 Ry
     estimated scf accuracy    <       0.13883011 Ry

     iteration #  6     ecut=    60.00 Ry     beta= 0.70
     Davidson diagonalization with overlap
     c_bands:  1 eigenvalues not converged
     ethr =  3.08E-05,  avg # of iterations =  6.6

     total cpu time spent up to now is      100.9 secs

     total energy              =    -416.23055577 Ry
     estimated scf accuracy    <       0.04623509 Ry

     iteration #  7     ecut=    60.00 Ry     beta= 0.70
     Davidson diagonalization with overlap
     ethr =  3.08E-05,  avg # of iterations =  1.2

     total cpu time spent up to now is      109.4 secs

     total energy              =    -416.23111741 Ry
     estimated scf accuracy    <       0.01293831 Ry

     iteration #  8     ecut=    60.00 Ry     beta= 0.70
     Davidson diagonalization with overlap
     c_bands:  1 eigenvalues not converged
     ethr =  1.01E-05,  avg # of iterations =  8.4

     total cpu time spent up to now is      123.9 secs

     total energy              =    -416.23190389 Ry
     estimated scf accuracy    <       0.00418246 Ry

     iteration #  9     ecut=    60.00 Ry     beta= 0.70
     Davidson diagonalization with overlap
     c_bands:  1 eigenvalues not converged
     c_bands:  1 eigenvalues not converged
     c_bands:  1 eigenvalues not converged
     c_bands:  1 eigenvalues not converged
     c_bands:  1 eigenvalues not converged
     c_bands:  1 eigenvalues not converged
     c_bands:  2 eigenvalues not converged
     ethr =  3.27E-06,  avg # of iterations = 14.2

     total cpu time spent up to now is      143.2 secs

     total energy              =    -416.23306465 Ry
     estimated scf accuracy    <       0.00021404 Ry

     iteration # 10     ecut=    60.00 Ry     beta= 0.70
     Davidson diagonalization with overlap
     ethr =  1.67E-07,  avg # of iterations =  5.5

     total cpu time spent up to now is      161.4 secs

     total energy              =    -416.23329353 Ry
     estimated scf accuracy    <       0.00007368 Ry

     iteration # 11     ecut=    60.00 Ry     beta= 0.70
     Davidson diagonalization with overlap
     ethr =  5.76E-08,  avg # of iterations =  1.8

     total cpu time spent up to now is      171.0 secs

     total energy              =    -416.23326264 Ry
     estimated scf accuracy    <       0.00007677 Ry

     iteration # 12     ecut=    60.00 Ry     beta= 0.70
     Davidson diagonalization with overlap
     ethr =  5.76E-08,  avg # of iterations =  2.0

     total cpu time spent up to now is      182.2 secs

     total energy              =    -416.23327615 Ry
     estimated scf accuracy    <       0.00000229 Ry

     iteration # 13     ecut=    60.00 Ry     beta= 0.70
     Davidson diagonalization with overlap
     ethr =  1.79E-09,  avg # of iterations =  7.1

     total cpu time spent up to now is      204.5 secs

     total energy              =    -416.23327979 Ry
     estimated scf accuracy    <       0.00000683 Ry

     iteration # 14     ecut=    60.00 Ry     beta= 0.70
     Davidson diagonalization with overlap
     ethr =  1.79E-09,  avg # of iterations =  1.2

     total cpu time spent up to now is      213.0 secs

     total energy              =    -416.23327830 Ry
     estimated scf accuracy    <       0.00000543 Ry

     iteration # 15     ecut=    60.00 Ry     beta= 0.70
     Davidson diagonalization with overlap
     ethr =  1.79E-09,  avg # of iterations =  2.0

     total cpu time spent up to now is      223.9 secs

     total energy              =    -416.23327835 Ry
     estimated scf accuracy    <       0.00000129 Ry

     iteration # 16     ecut=    60.00 Ry     beta= 0.70
     Davidson diagonalization with overlap
     ethr =  1.00E-09,  avg # of iterations =  1.8

     total cpu time spent up to now is      233.0 secs

     total energy              =    -416.23327826 Ry
     estimated scf accuracy    <       0.00000039 Ry

     iteration # 17     ecut=    60.00 Ry     beta= 0.70
     Davidson diagonalization with overlap
     ethr =  3.04E-10,  avg # of iterations =  4.0

     total cpu time spent up to now is      247.0 secs

     total energy              =    -416.23327839 Ry
     estimated scf accuracy    <       0.00000001 Ry

     iteration # 18     ecut=    60.00 Ry     beta= 0.70
     Davidson diagonalization with overlap
     ethr =  7.96E-12,  avg # of iterations =  6.0

     total cpu time spent up to now is      267.9 secs

     total energy              =    -416.23327841 Ry
     estimated scf accuracy    <       0.00000001 Ry

     iteration # 19     ecut=    60.00 Ry     beta= 0.70
     Davidson diagonalization with overlap
     ethr =  7.96E-12,  avg # of iterations =  1.0

     total cpu time spent up to now is      276.3 secs

     total energy              =    -416.23327841 Ry
     estimated scf accuracy    <          3.8E-09 Ry

     iteration # 20     ecut=    60.00 Ry     beta= 0.70
     Davidson diagonalization with overlap
     ethr =  2.93E-12,  avg # of iterations =  2.0

     total cpu time spent up to now is      287.0 secs

     total energy              =    -416.23327844 Ry
     estimated scf accuracy    <          5.5E-10 Ry

     iteration # 21     ecut=    60.00 Ry     beta= 0.70
     Davidson diagonalization with overlap
     ethr =  4.29E-13,  avg # of iterations =  5.0

     total cpu time spent up to now is      304.4 secs

     total energy              =    -416.23327841 Ry
     estimated scf accuracy    <          8.5E-10 Ry

     iteration # 22     ecut=    60.00 Ry     beta= 0.70
     Davidson diagonalization with overlap
     ethr =  4.29E-13,  avg # of iterations =  2.0

     total cpu time spent up to now is      314.4 secs

     total energy              =    -416.23327841 Ry
     estimated scf accuracy    <          1.3E-10 Ry

     iteration # 23     ecut=    60.00 Ry     beta= 0.70
     Davidson diagonalization with overlap
     ethr =  1.02E-13,  avg # of iterations =  4.8

     total cpu time spent up to now is      329.5 secs

     End of self-consistent calculation

          k = 0.0000 0.0000 0.0000 ( 19891 PWs)   bands (ev):

    -9.4226  -8.7533  -8.7441  -7.8166  -7.7694  -7.6964  -7.6943  -7.6415
    -7.6224  -7.2793  -7.2492  -7.1434  -7.0800  -7.0674  -7.0165  -6.9614
    -0.9501  -0.6269  -0.5352  -0.3594   0.0084   0.0897   0.3270   0.5221
     0.6657   0.7283   0.8264   0.8817   1.0025   1.5088   1.5293   1.5664
     1.5986   1.6611   1.7126   1.7310   2.0252   2.0529   2.4555   2.5936
     2.8562   2.8676   2.8767   3.0524   3.1124   3.1347   3.2207   3.2921
     3.3750   3.4414   3.4493   3.5451   4.1285   4.1387   4.1782   4.2077
     4.2307   4.3990   4.4200   4.5248   4.5740   4.8437   4.8508   4.8680
     7.6984   8.8603   8.9532   9.2149   9.7454   9.8916  10.0554  10.1827
    10.2432  10.3107  10.3186  10.3595  10.6582

          k = 0.0000 0.0000 0.2457 ( 19806 PWs)   bands (ev):

    -9.2928  -8.6395  -8.6299  -7.8640  -7.7502  -7.6981  -7.6408  -7.6337
    -7.5799  -7.4478  -7.4199  -7.2025  -7.1303  -7.1259  -7.0844  -7.0256
    -0.7600  -0.7352  -0.6708  -0.2839   0.0026   0.1351   0.1589   0.2894
     0.4416   0.4984   0.5717   0.6251   0.7043   1.6284   1.7243   1.8035
     1.9522   2.0166   2.1062   2.1641   2.2859   2.3066   2.3588   2.3902
     2.8917   2.9143   2.9792   3.0202   3.0691   3.3906   3.5052   3.5370
     3.5427   3.5961   3.7634   3.8027   4.0013   4.0431   4.0763   4.0960
     4.1785   4.1969   4.3024   4.3374   4.4064   4.4677   4.7732   4.7944
     8.2546   8.7649   8.9060   9.0192   9.4821   9.6723   9.8223   9.8750
    10.0070  10.3357  10.4390  10.5075  10.7640

          k = 0.0000 0.0000 0.4915 ( 19836 PWs)   bands (ev):

    -8.9250  -8.3926  -8.3179  -8.3104  -7.8730  -7.8625  -7.5741  -7.5234
    -7.4823  -7.4623  -7.4120  -7.3589  -7.2781  -7.2673  -7.2473  -7.1912
    -0.8899  -0.7979  -0.7207  -0.4072  -0.1460  -0.1335   0.0058   0.1611
     0.2773   0.4554   0.6807   0.8044   0.9047   1.2973   1.4675   1.9062
     1.9387   2.3830   2.4031   2.4599   2.7099   2.8353   3.0153   3.0642
     3.0768   3.1989   3.2606   3.2848   3.3649   3.4016   3.5587   3.6213
     3.6591   3.7078   3.7357   3.7547   3.7993   3.8115   3.8458   3.8620
     4.0080   4.0122   4.0945   4.1702   4.3596   4.3931   4.5955   4.6173
     8.6470   8.6706   8.7828   8.9132   9.4424   9.5038   9.6021   9.9060
    10.0042  10.2276  10.3287  10.5201  10.6788

          k = 0.0000 0.1924 0.0000 ( 19844 PWs)   bands (ev):

    -9.3501  -9.0966  -8.3177  -7.9006  -7.8107  -7.7517  -7.7134  -7.6496
    -7.5853  -7.4258  -7.1449  -7.1167  -7.0638  -7.0490  -7.0211  -6.9622
    -0.8858  -0.6750  -0.4743  -0.2183  -0.1236   0.1321   0.2382   0.3689
     0.6934   0.8216   0.8501   0.9131   1.0497   1.1494   1.3885   1.5095
     1.5839   1.6237   1.6392   1.7673   2.1405   2.1688   2.6034   2.6269
     2.7677   2.9291   3.0768   3.1928   3.2401   3.3384   3.3573   3.3842
     3.4578   3.5319   3.5908   3.7333   3.7536   3.9126   3.9896   4.0296
     4.0934   4.2684   4.3884   4.3924   4.6431   4.6999   4.8181   4.8438
     8.1028   8.7447   9.0977   9.2463   9.6470  10.0353  10.1096  10.2365
    10.2942  10.3774  10.4645  10.5199  10.7341

          k = 0.0000 0.1924 0.2457 ( 19848 PWs)   bands (ev):

    -9.2217  -8.9733  -8.2196  -7.8338  -7.8109  -7.7460  -7.6827  -7.6591
    -7.6251  -7.5834  -7.2457  -7.1990  -7.1357  -7.1170  -7.0893  -7.0257
    -0.7366  -0.6630  -0.5800  -0.1942  -0.0488  -0.0046   0.0786   0.1793
     0.3816   0.4998   0.5864   0.7155   0.8051   1.1390   1.6778   1.8397
     1.9150   1.9551   2.0228   2.1081   2.3839   2.4611   2.7447   2.7832
     2.8289   3.0230   3.1390   3.1571   3.2624   3.2778   3.4841   3.5571
     3.6297   3.7020   3.7651   3.7758   3.8280   3.8666   3.8949   3.9224
     4.0744   4.0920   4.1339   4.2658   4.4702   4.6012   4.6234   4.7628
     8.5105   8.8080   8.9774   9.0984   9.5800   9.8059   9.8381   9.9188
    10.1076  10.1398  10.2704  10.6171  10.8573

          k = 0.0000 0.1924 0.4915 ( 19866 PWs)   bands (ev):

    -8.8588  -8.6262  -8.3307  -8.1238  -7.9495  -7.6478  -7.5753  -7.5557
    -7.5116  -7.4756  -7.4174  -7.3596  -7.3344  -7.2760  -7.2508  -7.1917
    -0.8226  -0.7069  -0.6462  -0.3978  -0.0873  -0.0545  -0.0185   0.1303
     0.1883   0.3027   0.3316   0.6631   0.9072   0.9534   1.9930   2.1565
     2.1912   2.3821   2.6311   2.6882   2.7306   2.7539   2.7851   2.9401
     3.1596   3.2092   3.2526   3.3322   3.3491   3.3670   3.4396   3.4799
     3.5426   3.7076   3.7528   3.7759   3.8412   3.8920   3.9309   3.9712
     3.9794   4.0093   4.0672   4.0818   4.2462   4.3567   4.3912   4.5666
     8.7238   8.8079   8.9127   9.0488   9.5200   9.6530   9.7832   9.8843
     9.9785  10.0403  10.2494  10.4579  10.5740

          k = 0.2500 0.0000 0.0000 ( 19868 PWs)   bands (ev):

    -9.2908  -8.6401  -8.6309  -8.3638  -7.9232  -7.9146  -7.6152  -7.5501
    -7.3301  -7.2314  -7.2037  -7.1751  -7.1250  -7.0651  -7.0316  -6.9926
    -0.8009  -0.4413  -0.3660  -0.1359   0.2180   0.2665   0.3633   0.5397
     0.7087   0.8045   0.9571   1.0451   1.2716   1.2845   1.3393   1.4018
     1.5254   1.6797   1.7301   1.7895   2.0396   2.0860   2.2957   2.3645
     2.6573   2.7503   2.8183   2.8343   2.9144   3.1104   3.2514   3.3131
     3.4348   3.5112   3.5748   3.7379   3.8389   3.9088   4.0608   4.0897
     4.1406   4.1704   4.2317   4.3113   4.3309   4.3524   4.7663   4.7758
     8.3409   9.2366   9.3552   9.5715   9.7770  10.0637  10.1443  10.2517
    10.3745  10.5210  10.6171  10.7606  11.0023

          k = 0.2500 0.0000 0.2457 ( 19859 PWs)   bands (ev):

    -9.1636  -8.5297  -8.5202  -8.2635  -7.8466  -7.8366  -7.7745  -7.5658
    -7.3974  -7.3626  -7.3027  -7.2824  -7.1702  -7.1269  -7.0997  -7.0755
    -0.6153  -0.5555  -0.4447  -0.1242   0.1350   0.2494   0.2794   0.4975
     0.5294   0.6726   0.6858   0.7588   0.9668   1.2382   1.6117   1.7374
     1.8458   1.8991   1.9561   2.0608   2.1180   2.2243   2.3844   2.6243
     2.7635   2.8943   2.9139   2.9492   3.1426   3.2041   3.3124   3.3860
     3.5170   3.5860   3.6655   3.6940   3.7610   3.7929   3.9870   4.0089
     4.0449   4.0732   4.1231   4.1998   4.3350   4.3629   4.5990   4.6805
     8.6946   9.0636   9.2656   9.4766   9.7788   9.9215  10.0686  10.2039
    10.2477  10.3165  10.5474  10.8074  11.0015

          k = 0.2500 0.0000 0.4915 ( 19885 PWs)   bands (ev):

    -8.8042  -8.2866  -8.2190  -8.2117  -7.9878  -7.7948  -7.7845  -7.6313
    -7.6221  -7.6113  -7.4044  -7.3700  -7.3497  -7.2515  -7.2014  -7.1469
    -0.7412  -0.5682  -0.4876  -0.2284   0.0557   0.1392   0.1572   0.3315
     0.4808   0.6543   0.7847   0.8551   0.9827   1.1741   1.2354   1.3450
     1.7960   2.2949   2.4015   2.7114   2.7343   2.7977   2.8833   2.9090
     2.9562   2.9834   3.1657   3.2016   3.3090   3.3730   3.3936   3.4356
     3.4777   3.5584   3.6756   3.7313   3.7421   3.8047   3.8907   3.9119
     3.9285   3.9561   3.9814   4.0032   4.0462   4.1681   4.3035   4.4725
     8.9044   9.0570   9.2103   9.2983   9.6618   9.8706   9.9843  10.1934
    10.3116  10.4257  10.5169  10.7586  10.8537

          k = 0.2500 0.1924 0.0000 ( 19868 PWs)   bands (ev):

    -9.2202  -8.9729  -8.3170  -8.2185  -8.1358  -7.8140  -7.6675  -7.5226
    -7.4322  -7.3618  -7.1678  -7.1146  -7.0847  -7.0538  -7.0107  -6.9907
    -0.7365  -0.5375  -0.3003  -0.0021   0.0923   0.2102   0.4058   0.5849
     0.7768   0.8739   0.9207   0.9735   1.0377   1.1651   1.3482   1.4409
     1.4949   1.5961   1.6855   1.7350   2.1095   2.2192   2.4178   2.5107
     2.7282   2.8080   2.9103   2.9516   3.0115   3.0553   3.1535   3.2366
     3.4103   3.5674   3.6933   3.7479   3.7783   3.8322   3.8861   3.9418
     4.0083   4.0272   4.1239   4.3205   4.5257   4.5675   4.7368   4.7568
     8.5747   9.0714   9.4174   9.6107   9.8068   9.9137  10.1697  10.2752
    10.3779  10.5932  10.6348  10.8365  11.0454

          k = 0.2500 0.1924 0.2457 ( 19871 PWs)   bands (ev):

    -9.0946  -8.8525  -8.2193  -8.1244  -8.0450  -7.7516  -7.7272  -7.6119
    -7.5567  -7.3994  -7.2779  -7.2118  -7.1767  -7.1255  -7.0837  -7.0622
    -0.5941  -0.5178  -0.3774  -0.0324   0.0751   0.1298   0.2308   0.3670
     0.4917   0.6239   0.7745   0.9391   1.0599   1.1196   1.3436   1.6662
     1.8068   1.8928   1.9634   2.0161   2.4373   2.5502   2.6131   2.6512
     2.6997   2.7816   2.8271   2.9506   3.1180   3.1641   3.3076   3.3789
     3.4490   3.5323   3.6606   3.6779   3.7366   3.8207   3.8907   3.9485
     3.9933   4.0966   4.1676   4.2065   4.3975   4.4730   4.5326   4.6579
     8.8108   9.1166   9.2829   9.4776   9.6792   9.9423  10.0537  10.1645
    10.3136  10.3963  10.5860  10.8870  10.9932

          k = 0.2500 0.1924 0.4915 ( 19891 PWs)   bands (ev):

    -8.7404  -8.5147  -8.2279  -8.0291  -7.9517  -7.8678  -7.7980  -7.6044
    -7.5582  -7.4915  -7.4532  -7.4465  -7.3243  -7.2916  -7.2221  -7.1604
    -0.6967  -0.5281  -0.4223  -0.2296   0.0760   0.1494   0.1846   0.3126
     0.3862   0.4649   0.6507   0.7331   0.9185   0.9847   1.5722   1.8171
     2.1292   2.1909   2.3029   2.4864   2.6308   2.7229   2.7991   2.8646
     2.9796   3.0572   3.1533   3.1777   3.3115   3.3563   3.4077   3.4705
     3.5202   3.5878   3.6423   3.6800   3.7332   3.8532   3.8840   3.9178
     3.9627   3.9890   4.0260   4.0498   4.0812   4.1743   4.2050   4.4316
     9.0145   9.1094   9.2097   9.3367   9.6719   9.9549  10.0762  10.1989
    10.2347  10.3336  10.4602  10.6700  10.7808

          k =-0.5000 0.0000 0.0000 ( 19902 PWs)   bands (ev):

    -8.9482  -8.8794  -8.3577  -8.3464  -8.2967  -8.2898  -7.4372  -7.4065
    -7.3487  -7.3045  -7.1960  -7.1259  -7.1149  -7.0886  -7.0449  -7.0236
    -0.5242  -0.2996  -0.1112   0.0705   0.2956   0.3549   0.6208   0.7069
     0.8331   0.9223   0.9888   1.0522   1.0927   1.2215   1.2331   1.4383
     1.5759   1.5894   1.7387   1.7591   2.1144   2.1569   2.2616   2.3999
     2.4957   2.6964   2.7450   2.8046   2.8829   2.9018   2.9354   2.9574
     3.0173   3.0528   3.6048   3.6791   3.8982   3.9148   3.9694   4.0037
     4.0642   4.0931   4.1023   4.1371   4.4046   4.4786   4.5173   4.5511
     9.1669   9.4706   9.6216   9.7743   9.8809   9.9701  10.1030  10.4003
    10.5652  10.8160  10.8981  11.1438  11.1701

          k =-0.5000 0.0000 0.2457 ( 19898 PWs)   bands (ev):

    -8.8291  -8.7618  -8.2582  -8.2465  -8.1983  -8.1909  -7.5813  -7.5170
    -7.3902  -7.3358  -7.2975  -7.2473  -7.2243  -7.1806  -7.1356  -7.0757
    -0.3892  -0.3475  -0.1770   0.1308   0.2545   0.3235   0.4537   0.4981
     0.6554   0.8099   0.8725   1.0889   1.1952   1.2367   1.3050   1.3321
     1.7227   1.8600   1.9565   1.9833   2.1655   2.4109   2.4931   2.5475
     2.5700   2.6529   2.7359   2.8321   2.8524   2.8953   2.9505   2.9981
     3.3221   3.4338   3.5367   3.5836   3.7650   3.7896   3.8580   3.8793
     4.1236   4.1761   4.1916   4.2135   4.3031   4.3605   4.4431   4.4527
     9.1925   9.4969   9.5674   9.8090   9.9401  10.0786  10.2121  10.3149
    10.4445  10.6956  10.8260  11.0738  11.1693

          k =-0.5000 0.0000 0.4915 ( 19900 PWs)   bands (ev):

    -8.4957  -8.4321  -8.0286  -7.9842  -7.9739  -7.9585  -7.9246  -7.9167
    -7.6123  -7.5972  -7.5448  -7.5401  -7.2927  -7.2352  -7.1988  -7.1378
    -0.5547  -0.2706  -0.1697  -0.0444   0.3058   0.3784   0.4904   0.5283
     0.6296   0.7495   0.8134   0.8872   0.9397   0.9982   1.4081   1.4489
     1.6578   1.8293   1.9917   2.0236   2.6316   2.6740   2.7717   2.7921
     2.9165   3.0030   3.0952   3.1205   3.1647   3.2059   3.3747   3.4568
     3.4788   3.5388   3.5544   3.6019   3.6628   3.7131   3.8591   3.9021
     3.9163   3.9488   3.9650   4.0076   4.0164   4.0547   4.0808   4.1284
     9.3175   9.4258   9.6243   9.7341   9.9530  10.0966  10.2859  10.4595
    10.5884  10.6896  10.8062  10.8674  10.9731

          k =-0.5000 0.1924 0.0000 ( 19886 PWs)   bands (ev):

    -8.8848  -8.8154  -8.6537  -8.5944  -7.9822  -7.9264  -7.6240  -7.5698
    -7.3618  -7.2913  -7.2390  -7.1738  -7.0730  -7.0400  -7.0047  -6.9764
    -0.4900  -0.2769  -0.1530   0.0809   0.2838   0.4302   0.5032   0.6554
     0.7582   0.8544   0.9406   1.0147   1.3158   1.3614   1.3866   1.4614
     1.5784   1.7645   1.8200   1.8427   1.9015   1.9995   2.0979   2.2868
     2.3707   2.4338   2.5865   2.8286   2.9762   3.0051   3.1755   3.2133
     3.2647   3.3686   3.4197   3.4580   3.5457   3.5629   3.6577   3.7156
     4.2686   4.2888   4.4150   4.4518   4.4779   4.4867   4.5488   4.5777
     9.1286   9.4499   9.5357   9.6503   9.9494   9.9851  10.0894  10.3505
    10.4709  10.6154  10.7753  11.0696  11.3228

          k =-0.5000 0.1924 0.2457 ( 19868 PWs)   bands (ev):

    -8.7677  -8.6996  -8.5426  -8.4845  -7.9011  -7.8465  -7.5798  -7.5571
    -7.5017  -7.4643  -7.4004  -7.3408  -7.1533  -7.1036  -7.0869  -7.0421
    -0.3845  -0.3242  -0.1897   0.1658   0.2906   0.3818   0.4350   0.5037
     0.5680   0.6503   0.7332   0.7952   1.3660   1.5592   1.6199   1.6815
     1.7907   1.8943   2.0283   2.0653   2.1067   2.1644   2.2807   2.3101
     2.3909   2.4803   2.5728   2.6152   2.7893   2.8216   3.1885   3.2420
     3.3503   3.4152   3.5405   3.5870   3.6306   3.6917   3.9005   3.9757
     4.1934   4.2246   4.3138   4.3438   4.3623   4.3763   4.4479   4.4731
     9.0892   9.4075   9.5438   9.6245   9.9574  10.1239  10.3001  10.3783
    10.4660  10.6907  10.8002  10.9865  11.0761

          k =-0.5000 0.1924 0.4915 ( 19898 PWs)   bands (ev):

    -8.4409  -8.3759  -8.2336  -8.1795  -7.9798  -7.9125  -7.8025  -7.7509
    -7.6722  -7.6233  -7.4476  -7.3896  -7.3594  -7.2993  -7.2348  -7.1746
    -0.5236  -0.3286  -0.1954  -0.0029   0.2997   0.3369   0.4437   0.4696
     0.6268   0.7060   0.7635   0.9061   1.1520   1.2729   1.4843   1.6251
     1.6715   1.7398   2.1385   2.1958   2.2443   2.3133   2.6056   2.6373
     2.7413   2.7896   2.9022   2.9949   3.2141   3.3667   3.4099   3.5328
     3.5525   3.5657   3.6442   3.7068   3.7874   3.8185   3.8378   3.8638
     3.9647   3.9788   4.0129   4.0225   4.0590   4.0914   4.1670   4.1912
     9.2858   9.4561   9.5104   9.6161   9.8700  10.0089  10.2954  10.5003
    10.5906  10.6751  10.7656  10.8473  10.9519

          k = 0.0000-0.1924 0.2457 ( 19848 PWs)   bands (ev):

    -9.2217  -8.9733  -8.2195  -7.8308  -7.8140  -7.7461  -7.6832  -7.6600
    -7.6231  -7.5837  -7.2465  -7.1988  -7.1355  -7.1159  -7.0901  -7.0257
    -0.7374  -0.6649  -0.5765  -0.2001  -0.0528   0.0036   0.0816   0.1824
     0.3630   0.5182   0.6127   0.7275   0.7855   1.0821   1.7510   1.7827
     1.8908   1.9817   2.0477   2.0878   2.3976   2.4762   2.7368   2.7940
     2.8461   3.0000   3.0971   3.1730   3.2527   3.2938   3.5116   3.5434
     3.6620   3.7057   3.7231   3.7552   3.8171   3.8728   3.8933   3.9252
     4.0788   4.1102   4.1355   4.2618   4.4577   4.6097   4.6344   4.7563
     8.5063   8.7925   8.9752   9.1156   9.5801   9.7087   9.8137  10.0241
    10.1571  10.1801  10.3319  10.5816  10.8608

          k = 0.0000-0.1924 0.4915 ( 19866 PWs)   bands (ev):

    -8.8588  -8.6262  -8.3308  -8.1239  -7.9492  -7.6479  -7.5748  -7.5551
    -7.5119  -7.4780  -7.4168  -7.3586  -7.3345  -7.2755  -7.2511  -7.1918
    -0.8232  -0.7071  -0.6445  -0.3997  -0.0927  -0.0608  -0.0130   0.1360
     0.1951   0.3061   0.3417   0.6455   0.9161   0.9315   2.0345   2.1071
     2.2163   2.3933   2.6328   2.6907   2.7018   2.7531   2.7829   2.9388
     3.1811   3.2078   3.2762   3.2921   3.3583   3.3980   3.4374   3.4747
     3.5150   3.7169   3.7552   3.7754   3.8472   3.8857   3.9177   3.9575
     3.9941   4.0160   4.0577   4.0683   4.2593   4.3665   4.3991   4.5574
     8.7002   8.7941   8.9289   9.0476   9.5481   9.6325   9.7731   9.8582
    10.0429  10.1468  10.2132  10.4555  10.5456

          k =-0.2500 0.0000 0.2457 ( 19859 PWs)   bands (ev):

    -9.1636  -8.5297  -8.5203  -8.2636  -7.8481  -7.8365  -7.7729  -7.5656
    -7.3956  -7.3628  -7.3053  -7.2827  -7.1698  -7.1266  -7.0991  -7.0758
    -0.6117  -0.5592  -0.4502  -0.1133   0.1410   0.2463   0.2798   0.4913
     0.5313   0.6456   0.7033   0.7588   0.9691   1.2332   1.6165   1.7533
     1.8246   1.9125   1.9764   2.0276   2.1385   2.2102   2.3831   2.6150
     2.7849   2.8873   2.9129   2.9472   3.1442   3.2070   3.2913   3.3971
     3.5300   3.5719   3.6752   3.7068   3.7618   3.7884   3.9783   4.0045
     4.0378   4.0850   4.1206   4.2022   4.3281   4.3619   4.6029   4.6814
     8.6988   9.0581   9.3155   9.4232   9.7673   9.9381  10.0112  10.2162
    10.3337  10.3610  10.4619  10.8598  10.9493

          k =-0.2500 0.0000 0.4915 ( 19885 PWs)   bands (ev):

    -8.8042  -8.2867  -8.2189  -8.2117  -7.9887  -7.7940  -7.7836  -7.6308
    -7.6218  -7.6120  -7.4076  -7.3712  -7.3459  -7.2524  -7.2004  -7.1473
    -0.7426  -0.5747  -0.4800  -0.2161   0.0545   0.1088   0.1667   0.3443
     0.4716   0.6718   0.7688   0.8547   0.9799   1.1812   1.2367   1.3479
     1.7956   2.2897   2.4014   2.6829   2.7729   2.8149   2.8377   2.9270
     2.9544   2.9873   3.1304   3.2338   3.3283   3.3578   3.3835   3.4379
     3.4869   3.5700   3.6744   3.7421   3.7495   3.8050   3.8567   3.9064
     3.9274   3.9495   3.9893   4.0194   4.0349   4.1670   4.3083   4.4730
     8.9287   9.0177   9.2138   9.2962   9.7275   9.8450  10.0086  10.1763
    10.2754  10.4064  10.5343  10.6892  10.8443

          k =-0.2500 0.1924 0.0000 ( 19868 PWs)   bands (ev):

    -9.2202  -8.9730  -8.3167  -8.2186  -8.1358  -7.8140  -7.6693  -7.5182
    -7.4362  -7.3605  -7.1677  -7.1157  -7.0841  -7.0527  -7.0115  -6.9906
    -0.7447  -0.4980  -0.3223  -0.1003   0.1434   0.2805   0.4260   0.5383
     0.7624   0.8649   0.9212   0.9863   1.0697   1.1715   1.2833   1.4693
     1.4910   1.5846   1.7019   1.7329   2.1240   2.2170   2.4178   2.5077
     2.7162   2.8184   2.9034   2.9606   2.9963   3.0383   3.1665   3.2279
     3.4228   3.5674   3.7060   3.7558   3.7996   3.8122   3.8793   3.9399
     4.0029   4.0312   4.1274   4.3138   4.5268   4.5737   4.7354   4.7511
     8.5777   9.0709   9.3677   9.6083   9.8558   9.9908  10.1451  10.2867
    10.4068  10.4921  10.6553  10.8503  10.9442

          k =-0.2500-0.1924 0.2457 ( 19871 PWs)   bands (ev):

    -9.0946  -8.8526  -8.2194  -8.1243  -8.0451  -7.7485  -7.7307  -7.6113
    -7.5560  -7.3988  -7.2789  -7.2147  -7.1746  -7.1259  -7.0816  -7.0634
    -0.5885  -0.5238  -0.3893  -0.0111   0.0768   0.1567   0.2215   0.3565
     0.4803   0.6416   0.7637   0.8676   1.0481   1.1712   1.3581   1.7256
     1.7836   1.8815   1.9323   2.0227   2.4438   2.5102   2.5969   2.6744
     2.6955   2.7959   2.8431   2.9624   3.1218   3.2000   3.2889   3.3653
     3.4253   3.5470   3.6338   3.7046   3.7389   3.8205   3.8924   3.9606
     3.9782   4.0908   4.1693   4.2006   4.4009   4.4623   4.5312   4.6700
     8.8262   9.0045   9.3629   9.4837   9.7772   9.9338  10.0271  10.1826
    10.2779  10.3707  10.5302  10.8685  11.0449

          k =-0.2500 0.1924-0.2457 ( 19871 PWs)   bands (ev):

    -9.0946  -8.8526  -8.2190  -8.1245  -8.0448  -7.7484  -7.7308  -7.6175
    -7.5493  -7.4008  -7.2781  -7.2104  -7.1798  -7.1239  -7.0817  -7.0640
    -0.6019  -0.4756  -0.4216  -0.0668   0.1273   0.1599   0.2450   0.3068
     0.5274   0.6745   0.7100   0.8464   1.0987   1.1522   1.3533   1.7216
     1.7637   1.8810   1.9405   2.0414   2.4437   2.5057   2.6098   2.6535
     2.7029   2.7779   2.8552   2.9500   3.1226   3.1961   3.2941   3.3810
     3.4470   3.5131   3.6294   3.6759   3.7880   3.8191   3.9066   3.9416
     3.9799   4.0929   4.1685   4.1999   4.4050   4.4634   4.5299   4.6630
     8.8129   9.0345   9.2725   9.5421   9.7900   9.9322  10.0839  10.1439
    10.3172  10.4096  10.5166  10.7366  11.0319

          k = 0.2500-0.1924-0.2457 ( 19871 PWs)   bands (ev):

    -9.0946  -8.8526  -8.2192  -8.1244  -8.0448  -7.7514  -7.7276  -7.6173
    -7.5493  -7.4005  -7.2781  -7.2124  -7.1794  -7.1234  -7.0817  -7.0638
    -0.5931  -0.4813  -0.4319  -0.0497   0.1137   0.1598   0.2472   0.3023
     0.5410   0.6263   0.7541   0.8679   1.0953   1.1374   1.3422   1.6568
     1.8324   1.8923   1.9600   2.0098   2.4758   2.5274   2.5740   2.6556
     2.7029   2.7896   2.8198   2.9479   3.1174   3.1587   3.3112   3.4014
     3.4714   3.4996   3.6398   3.6772   3.7843   3.8219   3.8962   3.9352
     3.9841   4.1040   4.1647   4.1939   4.3958   4.4750   4.5401   4.6521
     8.8171   9.1192   9.3166   9.3912   9.8112   9.8796   9.9908  10.2038
    10.3276  10.4268  10.5215  10.8683  10.9608

          k =-0.2500-0.1924 0.4915 ( 19891 PWs)   bands (ev):

    -8.7404  -8.5147  -8.2282  -8.0297  -7.9515  -7.8671  -7.7972  -7.6024
    -7.5604  -7.4961  -7.4556  -7.4379  -7.3280  -7.2922  -7.2192  -7.1612
    -0.6992  -0.5314  -0.4208  -0.2121   0.0812   0.1362   0.1828   0.3051
     0.3860   0.4712   0.6275   0.7534   0.9237   0.9737   1.5714   1.8398
     2.1229   2.2024   2.2735   2.4824   2.6495   2.7298   2.7996   2.8394
     2.9503   3.0743   3.1612   3.2130   3.2954   3.3364   3.4261   3.4769
     3.5406   3.5779   3.6573   3.6707   3.7432   3.8431   3.8618   3.9354
     3.9633   3.9702   4.0135   4.0581   4.0820   4.1696   4.1975   4.4469
     8.8979   9.0977   9.3246   9.3798   9.8505   9.8878   9.9632  10.1532
    10.2326  10.3235  10.5358  10.6019  10.7622

          k =-0.2500 0.1924-0.4915 ( 19891 PWs)   bands (ev):

    -8.7404  -8.5148  -8.2279  -8.0297  -7.9508  -7.8675  -7.7972  -7.6089
    -7.5552  -7.4892  -7.4676  -7.4338  -7.3220  -7.2959  -7.2194  -7.1616
    -0.6859  -0.5497  -0.4296  -0.2031   0.0860   0.1171   0.2542   0.2866
     0.3522   0.4513   0.6725   0.7221   0.9354   0.9723   1.5707   1.8357
     2.1041   2.2147   2.2793   2.4720   2.6732   2.7527   2.7779   2.8134
     2.9868   3.0782   3.1236   3.2174   3.2903   3.3691   3.4016   3.4528
     3.5208   3.5978   3.6700   3.6954   3.7435   3.8296   3.8650   3.9407
     3.9504   3.9840   4.0194   4.0571   4.0760   4.1715   4.1969   4.4399
     8.8788   9.1299   9.3150   9.3979   9.7627   9.8837  10.0034  10.1704
    10.2174  10.3461  10.4909  10.6811  10.7502

          k = 0.2500-0.1924-0.4915 ( 19891 PWs)   bands (ev):

    -8.7403  -8.5148  -8.2280  -8.0301  -7.9506  -7.8675  -7.7967  -7.6067
    -7.5580  -7.4924  -7.4586  -7.4402  -7.3195  -7.2965  -7.2208  -7.1610
    -0.6841  -0.5534  -0.4317  -0.1909   0.0664   0.1218   0.2315   0.3132
     0.3706   0.4347   0.6754   0.7193   0.9407   0.9696   1.5785   1.8207
     2.1110   2.1954   2.3055   2.4822   2.6178   2.7380   2.8077   2.8406
     2.9941   3.0781   3.1476   3.1804   3.2787   3.3540   3.4228   3.4443
     3.5385   3.6151   3.6634   3.6766   3.7329   3.8471   3.8658   3.9286
     3.9470   3.9904   4.0106   4.0538   4.0884   4.1740   4.2129   4.4261
     9.0109   9.1058   9.2281   9.3114   9.7903   9.9139  10.0412  10.1441
    10.2288  10.2948  10.4951  10.6128  10.7749

          k = 0.5000-0.1924 0.2457 ( 19868 PWs)   bands (ev):

    -8.7679  -8.6996  -8.5423  -8.4848  -7.9015  -7.8461  -7.5776  -7.5588
    -7.4998  -7.4676  -7.4007  -7.3395  -7.1530  -7.1038  -7.0875  -7.0417
    -0.3886  -0.3183  -0.1960   0.1740   0.2885   0.3879   0.4492   0.4796
     0.5702   0.6447   0.7638   0.7979   1.3246   1.4990   1.5879   1.6607
     1.8354   1.9494   2.0625   2.0981   2.1636   2.2119   2.2602   2.2792
     2.3487   2.4364   2.5427   2.6220   2.7816   2.8527   3.1641   3.2515
     3.3483   3.4408   3.5259   3.5811   3.6345   3.6868   3.9053   3.9718
     4.2091   4.2405   4.2978   4.3300   4.3522   4.3766   4.4605   4.4738
     9.0852   9.3604   9.5347   9.6381   9.9457  10.2075  10.2648  10.4982
    10.5824  10.6111  10.7199  10.9550  11.0421

          k = 0.5000-0.1924 0.4915 ( 19898 PWs)   bands (ev):

    -8.4411  -8.3758  -8.2331  -8.1799  -7.9797  -7.9128  -7.8028  -7.7509
    -7.6729  -7.6211  -7.4477  -7.3921  -7.3577  -7.2993  -7.2355  -7.1739
    -0.5268  -0.3239  -0.1945  -0.0063   0.2899   0.3369   0.4681   0.4906
     0.6034   0.7001   0.7684   0.9020   1.1270   1.2571   1.5038   1.6145
     1.7018   1.7401   2.1360   2.1988   2.2606   2.2878   2.6383   2.6639
     2.7242   2.7789   2.8706   2.9843   3.2130   3.3521   3.4233   3.5393
     3.5538   3.5917   3.6584   3.7179   3.7694   3.8085   3.8360   3.8506
     3.9639   3.9734   4.0085   4.0233   4.0614   4.0818   4.1735   4.2028
     9.2212   9.4005   9.5912   9.6473   9.8993  10.0603  10.2481  10.4802
    10.5759  10.7091  10.8126  10.9065  10.9547

     the Fermi energy is     6.2725 ev

!    total energy              =    -416.23327841 Ry
     estimated scf accuracy    <          4.6E-11 Ry
     smearing contrib. (-TS)   =      -0.00000000 Ry
     internal energy E=F+TS    =    -416.23327841 Ry

     The total energy is F=E-TS. E is the sum of the following terms:
     one-electron contribution =     -39.58749299 Ry
     hartree contribution      =      90.54723682 Ry
     xc contribution           =    -132.33967155 Ry
     ewald contribution        =    -334.85335069 Ry

     convergence has been achieved in  23 iterations

     Writing output data file ./wfc-out/pwscf.save/
 
     init_run     :      6.23s CPU      6.34s WALL (       1 calls)
     electrons    :    319.42s CPU    322.58s WALL (       1 calls)

     Called by init_run:
     wfcinit      :      5.28s CPU      5.34s WALL (       1 calls)
     potinit      :      0.20s CPU      0.20s WALL (       1 calls)
     hinit0       :      0.53s CPU      0.55s WALL (       1 calls)

     Called by electrons:
     c_bands      :    289.11s CPU    291.78s WALL (      23 calls)
     sum_band     :     27.79s CPU     28.11s WALL (      23 calls)
     v_of_rho     :      0.15s CPU      0.16s WALL (      24 calls)
     newd         :      2.11s CPU      2.14s WALL (      24 calls)
     mix_rho      :      0.17s CPU      0.18s WALL (      23 calls)

     Called by c_bands:
     init_us_2    :      1.83s CPU      1.89s WALL (    1457 calls)
     cegterg      :    282.77s CPU    284.95s WALL (     713 calls)

     Called by *egterg:
     cdiaghg      :     31.98s CPU     32.08s WALL (    3973 calls)
     h_psi        :    140.92s CPU    142.68s WALL (    4004 calls)
     s_psi        :     28.98s CPU     29.08s WALL (    4004 calls)
     g_psi        :      0.31s CPU      0.31s WALL (    3260 calls)

     Called by h_psi:
     h_psi:calbec :     34.81s CPU     34.94s WALL (    4004 calls)
     vloc_psi     :     76.04s CPU     77.56s WALL (    4004 calls)
     add_vuspsi   :     29.45s CPU     29.56s WALL (    4004 calls)

     General routines
     calbec       :     44.89s CPU     45.07s WALL (    4717 calls)
     fft          :      1.70s CPU      1.73s WALL (     142 calls)
     ffts         :      0.04s CPU      0.04s WALL (      47 calls)
     fftw         :     83.62s CPU     85.28s WALL (  396053 calls)
     interpolate  :      0.08s CPU      0.09s WALL (      24 calls)
 
     Parallel routines
     fft_scatt_xy :      5.41s CPU      5.50s WALL (  396242 calls)
     fft_scatt_yz :     35.24s CPU     35.97s WALL (  396242 calls)
 
     PWSCF        :   5m27.06s CPU   5m39.80s WALL

 
   This run was terminated on:  17:10: 0   6Mar2023            

=------------------------------------------------------------------------------=
   JOB DONE.
=------------------------------------------------------------------------------=
