 vasp.5.4.4.18Apr17-6-g9f103f2a35 (build Oct 01 2024 10:11:53) complex          
  
 executed on              Shaheen date 2025.02.19  15:18:41
 running on  192 total cores
 distrk:  each k-point on  192 cores,    1 groups
 distr:  one band on NCORES_PER_BAND=  24 cores,    8 groups


--------------------------------------------------------------------------------------------------------


 INCAR:
 POTCAR:    PAW_PBE Mo 08Apr2002                  
 POTCAR:    PAW_PBE S 06Sep2000                   
 POTCAR:    PAW_PBE Te 08Apr2002                  
 POTCAR:    PAW_PBE Mo 08Apr2002                  
   VRHFIN =Mo: 4p5s4d                                                           
   LEXCH  = PE                                                                  
   EATOM  =   217.5176 eV,   15.9871 Ry                                         
                                                                                
   TITEL  = PAW_PBE Mo 08Apr2002                                                
   LULTRA =        F    use ultrasoft PP ?                                      
   IUNSCR =        1    unscreen: 0-lin 1-nonlin 2-no                           
   RPACOR =    2.200    partial core radius                                     
   POMASS =   95.940; ZVAL   =    6.000    mass and valenz                      
   RCORE  =    2.750    outmost cutoff radius                                   
   RWIGS  =    2.750; RWIGS  =    1.455    wigner-seitz radius (au A)           
   ENMAX  =  224.584; ENMIN  =  168.438 eV                                      
   RCLOC  =    2.111    cutoff for local pot                                    
   LCOR   =        T    correct aug charges                                     
   LPAW   =        T    paw PP                                                  
   EAUG   =  345.278                                                            
   DEXC   =    0.000                                                            
   RMAX   =    2.821    core radius for proj-oper                               
   RAUG   =    1.300    factor for augmentation sphere                          
   RDEP   =    2.815    radius for radial grids                                 
   RDEPT  =    2.211    core radius for aug-charge                              
                                                                                
   Atomic configuration                                                         
   12 entries                                                                   
     n  l   j            E        occ.                                          
     1  0  0.50    -19819.0341   2.0000                                         
     2  0  0.50     -2799.0127   2.0000                                         
     2  1  1.50     -2502.0276   6.0000                                         
     3  0  0.50      -476.4448   2.0000                                         
     3  1  1.50      -379.1496   6.0000                                         
     3  2  2.50      -220.9367  10.0000                                         
     4  0  0.50       -64.3378   2.0000                                         
     4  1  1.50       -38.4773   6.0000                                         
     4  2  2.50        -3.7535   5.0000                                         
     5  0  0.50        -4.0862   1.0000                                         
     5  1  0.50        -2.7701   0.0000                                         
     4  3  2.50        -1.3606   0.0000                                         
   Description                                                                  
     l       E           TYP  RCUT    TYP  RCUT                                 
     2     -3.7534765     23  2.500                                             
     2     -5.1140591     23  2.500                                             
     0     -4.0861560     23  2.600                                             
     0     13.6058260     23  2.600                                             
     1      5.4423304     23  2.750                                             
     1     27.2116520     23  2.750                                             
  local pseudopotential read in
  partial core-charges read in
  partial kinetic energy density read in
  atomic valenz-charges read in
  non local Contribution for L=           2  read in
    real space projection operators read in
  non local Contribution for L=           2  read in
    real space projection operators read in
  non local Contribution for L=           0  read in
    real space projection operators read in
  non local Contribution for L=           0  read in
    real space projection operators read in
  non local Contribution for L=           1  read in
    real space projection operators read in
  non local Contribution for L=           1  read in
    real space projection operators read in
    PAW grid and wavefunctions read in
 
   number of l-projection  operators is LMAX  =           6
   number of lm-projection operators is LMMAX =          18
 
 POTCAR:    PAW_PBE S 06Sep2000                   
   VRHFIN =S : s2p4                                                             
   LEXCH  = PE                                                                  
   EATOM  =   276.8230 eV,   20.3459 Ry                                         
                                                                                
   TITEL  = PAW_PBE S 06Sep2000                                                 
   LULTRA =        F    use ultrasoft PP ?                                      
   IUNSCR =        1    unscreen: 0-lin 1-nonlin 2-no                           
   RPACOR =    1.500    partial core radius                                     
   POMASS =   32.066; ZVAL   =    6.000    mass and valenz                      
   RCORE  =    1.900    outmost cutoff radius                                   
   RWIGS  =    2.200; RWIGS  =    1.164    wigner-seitz radius (au A)           
   ENMAX  =  258.689; ENMIN  =  194.016 eV                                      
   ICORE  =        2    local potential                                         
   LCOR   =        T    correct aug charges                                     
   LPAW   =        T    paw PP                                                  
   EAUG   =  335.092                                                            
   DEXC   =    0.000                                                            
   RMAX   =    1.942    core radius for proj-oper                               
   RAUG   =    1.300    factor for augmentation sphere                          
   RDEP   =    1.954    radius for radial grids                                 
   RDEPT  =    1.744    core radius for aug-charge                              
                                                                                
   Atomic configuration                                                         
    6 entries                                                                   
     n  l   j            E        occ.                                          
     1  0  0.50     -2405.8406   2.0000                                         
     2  0  0.50      -211.7007   2.0000                                         
     2  1  1.50      -156.4958   6.0000                                         
     3  0  0.50       -17.2562   2.0000                                         
     3  1  0.50        -7.0085   4.0000                                         
     3  2  1.50        -6.8029   0.0000                                         
   Description                                                                  
     l       E           TYP  RCUT    TYP  RCUT                                 
     0    -17.2561641     23  1.900                                             
     0    -15.8743224     23  1.900                                             
     1     -7.0085400     23  1.900                                             
     1     -2.7779785     23  1.900                                             
     2     -6.8029130     23  1.900                                             
  local pseudopotential read in
  partial core-charges read in
  partial kinetic energy density read in
  atomic valenz-charges read in
  non local Contribution for L=           0  read in
    real space projection operators read in
  non local Contribution for L=           0  read in
    real space projection operators read in
  non local Contribution for L=           1  read in
    real space projection operators read in
  non local Contribution for L=           1  read in
    real space projection operators read in
    PAW grid and wavefunctions read in
 
   number of l-projection  operators is LMAX  =           4
   number of lm-projection operators is LMMAX =           8
 
 POTCAR:    PAW_PBE Te 08Apr2002                  
   VRHFIN =Te: s2p4                                                             
   LEXCH  = PE                                                                  
   EATOM  =   223.2721 eV,   16.4100 Ry                                         
                                                                                
   TITEL  = PAW_PBE Te 08Apr2002                                                
   LULTRA =        F    use ultrasoft PP ?                                      
   IUNSCR =        1    unscreen: 0-lin 1-nonlin 2-no                           
   RPACOR =    2.200    partial core radius                                     
   POMASS =  127.600; ZVAL   =    6.000    mass and valenz                      
   RCORE  =    2.300    outmost cutoff radius                                   
   RWIGS  =    2.900; RWIGS  =    1.535    wigner-seitz radius (au A)           
   ENMAX  =  174.982; ENMIN  =  131.236 eV                                      
   ICORE  =        3    local potential                                         
   LCOR   =        T    correct aug charges                                     
   LPAW   =        T    paw PP                                                  
   EAUG   =  368.792                                                            
   DEXC   =    0.000                                                            
   RMAX   =    2.345    core radius for proj-oper                               
   RAUG   =    1.300    factor for augmentation sphere                          
   RDEP   =    2.397    radius for radial grids                                 
   RDEPT  =    2.174    core radius for aug-charge                              
                                                                                
   Atomic configuration                                                         
   13 entries                                                                   
     n  l   j            E        occ.                                          
     1  0  0.50    -31621.2075   2.0000                                         
     2  0  0.50     -4848.7941   2.0000                                         
     2  1  1.50     -4352.1960   6.0000                                         
     3  0  0.50      -964.9612   2.0000                                         
     3  1  1.50      -803.6179   6.0000                                         
     3  2  2.50      -559.8710  10.0000                                         
     4  0  0.50      -164.3522   2.0000                                         
     4  1  1.50      -114.3756   6.0000                                         
     4  2  2.50       -41.6483  10.0000                                         
     5  0  0.50       -15.1072   2.0000                                         
     5  1  0.50        -5.9526   4.0000                                         
     5  2  1.50        -5.4423   0.0000                                         
     4  3  2.50        -5.4423   0.0000                                         
   Description                                                                  
     l       E           TYP  RCUT    TYP  RCUT                                 
     0    -15.1072389     23  2.300                                             
     0    -16.4678215     23  2.300                                             
     1     -5.9526306     23  2.300                                             
     1     -2.4873968     23  2.300                                             
     2     -5.4423304     23  2.300                                             
     3     -1.3605826     23  2.300                                             
  local pseudopotential read in
  partial core-charges read in
  partial kinetic energy density read in
  atomic valenz-charges read in
  non local Contribution for L=           0  read in
    real space projection operators read in
  non local Contribution for L=           0  read in
    real space projection operators read in
  non local Contribution for L=           1  read in
    real space projection operators read in
  non local Contribution for L=           1  read in
    real space projection operators read in
  non local Contribution for L=           2  read in
    real space projection operators read in
    PAW grid and wavefunctions read in
 
   number of l-projection  operators is LMAX  =           5
   number of lm-projection operators is LMMAX =          13
 
  PAW_PBE Mo 08Apr2002                  :
 energy of atom  1       EATOM= -217.5176
 kinetic energy error for atom=    0.0005 (will be added to EATOM!!)
  PAW_PBE S 06Sep2000                   :
 energy of atom  2       EATOM= -276.8230
 kinetic energy error for atom=    0.0009 (will be added to EATOM!!)
  PAW_PBE Te 08Apr2002                  :
 energy of atom  3       EATOM= -223.2721
 kinetic energy error for atom=    0.0004 (will be added to EATOM!!)
 
 
 POSCAR: Generated by VASPKIT code               
  positions in direct lattice
  velocities in cartesian coordinates
 exchange correlation table for  LEXCH =        8
   RHO(1)=    0.500       N(1)  =     2000
   RHO(2)=  100.500       N(2)  =     4000
 


--------------------------------------------------------------------------------------------------------


 ion  position               nearest neighbor table
   1  0.500  0.167  0.507-   3 2.43   4 2.44   4 2.44   5 2.71   6 2.72   6 2.72   2 3.36   2 3.36
                             2 3.36   2 3.36
   2  0.000  0.667  0.507-   4 2.43   3 2.44   3 2.44   6 2.71   5 2.72   5 2.72   1 3.36   1 3.36
                             1 3.36   1 3.36
   3  0.500  0.833  0.580-   1 2.43   2 2.44   2 2.44
   4  0.000  0.333  0.580-   2 2.43   1 2.44   1 2.44
   5  0.500  0.833  0.413-   1 2.71   2 2.72   2 2.72   6 3.36   6 3.36   6 3.36   6 3.36
   6  0.000  0.333  0.413-   2 2.71   1 2.72   1 2.72   5 3.36   5 3.36   5 3.36   5 3.36
 

IMPORTANT INFORMATION: All symmetrisations will be switched off!
NOSYMM: (Re-)initialisation of all symmetry stuff for point group C_1.

 
 
 KPOINTS: K-Spacing Value to Generate K-Mesh: 0.01

Automatic generation of k-mesh.
Space group operators:
 irot       det(A)        alpha          n_x          n_y          n_z        tau_x        tau_y        tau_z
    1     1.000000     0.000000     1.000000     0.000000     0.000000     0.000000     0.000000     0.000000
 
 Subroutine IBZKPT returns following result:
 ===========================================
 
 Found    105 irreducible k-points:
 
 Following reciprocal coordinates:
            Coordinates               Weight
  0.000000  0.000000  0.000000      1.000000
  0.052632  0.000000  0.000000      2.000000
  0.105263  0.000000  0.000000      2.000000
  0.157895  0.000000  0.000000      2.000000
  0.210526  0.000000  0.000000      2.000000
  0.263158  0.000000  0.000000      2.000000
  0.315789  0.000000  0.000000      2.000000
  0.368421  0.000000  0.000000      2.000000
  0.421053  0.000000  0.000000      2.000000
  0.473684  0.000000  0.000000      2.000000
  0.000000  0.090909  0.000000      2.000000
  0.052632  0.090909  0.000000      2.000000
  0.105263  0.090909  0.000000      2.000000
  0.157895  0.090909  0.000000      2.000000
  0.210526  0.090909  0.000000      2.000000
  0.263158  0.090909  0.000000      2.000000
  0.315789  0.090909  0.000000      2.000000
  0.368421  0.090909  0.000000      2.000000
  0.421053  0.090909  0.000000      2.000000
  0.473684  0.090909  0.000000      2.000000
 -0.473684  0.090909  0.000000      2.000000
 -0.421053  0.090909  0.000000      2.000000
 -0.368421  0.090909  0.000000      2.000000
 -0.315789  0.090909  0.000000      2.000000
 -0.263158  0.090909  0.000000      2.000000
 -0.210526  0.090909  0.000000      2.000000
 -0.157895  0.090909  0.000000      2.000000
 -0.105263  0.090909  0.000000      2.000000
 -0.052632  0.090909  0.000000      2.000000
  0.000000  0.181818  0.000000      2.000000
  0.052632  0.181818  0.000000      2.000000
  0.105263  0.181818  0.000000      2.000000
  0.157895  0.181818  0.000000      2.000000
  0.210526  0.181818  0.000000      2.000000
  0.263158  0.181818  0.000000      2.000000
  0.315789  0.181818  0.000000      2.000000
  0.368421  0.181818  0.000000      2.000000
  0.421053  0.181818  0.000000      2.000000
  0.473684  0.181818  0.000000      2.000000
 -0.473684  0.181818  0.000000      2.000000
 -0.421053  0.181818  0.000000      2.000000
 -0.368421  0.181818  0.000000      2.000000
 -0.315789  0.181818  0.000000      2.000000
 -0.263158  0.181818  0.000000      2.000000
 -0.210526  0.181818  0.000000      2.000000
 -0.157895  0.181818  0.000000      2.000000
 -0.105263  0.181818  0.000000      2.000000
 -0.052632  0.181818  0.000000      2.000000
  0.000000  0.272727  0.000000      2.000000
  0.052632  0.272727  0.000000      2.000000
  0.105263  0.272727  0.000000      2.000000
  0.157895  0.272727  0.000000      2.000000
  0.210526  0.272727  0.000000      2.000000
  0.263158  0.272727  0.000000      2.000000
  0.315789  0.272727  0.000000      2.000000
  0.368421  0.272727  0.000000      2.000000
  0.421053  0.272727  0.000000      2.000000
  0.473684  0.272727  0.000000      2.000000
 -0.473684  0.272727  0.000000      2.000000
 -0.421053  0.272727  0.000000      2.000000
 -0.368421  0.272727  0.000000      2.000000
 -0.315789  0.272727  0.000000      2.000000
 -0.263158  0.272727  0.000000      2.000000
 -0.210526  0.272727  0.000000      2.000000
 -0.157895  0.272727  0.000000      2.000000
 -0.105263  0.272727  0.000000      2.000000
 -0.052632  0.272727  0.000000      2.000000
  0.000000  0.363636  0.000000      2.000000
  0.052632  0.363636  0.000000      2.000000
  0.105263  0.363636  0.000000      2.000000
  0.157895  0.363636  0.000000      2.000000
  0.210526  0.363636  0.000000      2.000000
  0.263158  0.363636  0.000000      2.000000
  0.315789  0.363636  0.000000      2.000000
  0.368421  0.363636  0.000000      2.000000
  0.421053  0.363636  0.000000      2.000000
  0.473684  0.363636  0.000000      2.000000
 -0.473684  0.363636  0.000000      2.000000
 -0.421053  0.363636  0.000000      2.000000
 -0.368421  0.363636  0.000000      2.000000
 -0.315789  0.363636  0.000000      2.000000
 -0.263158  0.363636  0.000000      2.000000
 -0.210526  0.363636  0.000000      2.000000
 -0.157895  0.363636  0.000000      2.000000
 -0.105263  0.363636  0.000000      2.000000
 -0.052632  0.363636  0.000000      2.000000
  0.000000  0.454545  0.000000      2.000000
  0.052632  0.454545  0.000000      2.000000
  0.105263  0.454545  0.000000      2.000000
  0.157895  0.454545  0.000000      2.000000
  0.210526  0.454545  0.000000      2.000000
  0.263158  0.454545  0.000000      2.000000
  0.315789  0.454545  0.000000      2.000000
  0.368421  0.454545  0.000000      2.000000
  0.421053  0.454545  0.000000      2.000000
  0.473684  0.454545  0.000000      2.000000
 -0.473684  0.454545  0.000000      2.000000
 -0.421053  0.454545  0.000000      2.000000
 -0.368421  0.454545  0.000000      2.000000
 -0.315789  0.454545  0.000000      2.000000
 -0.263158  0.454545  0.000000      2.000000
 -0.210526  0.454545  0.000000      2.000000
 -0.157895  0.454545  0.000000      2.000000
 -0.105263  0.454545  0.000000      2.000000
 -0.052632  0.454545  0.000000      2.000000
 
 Following cartesian coordinates:
            Coordinates               Weight
  0.000000  0.000000  0.000000      1.000000
  0.015647  0.000000  0.000000      2.000000
  0.031295  0.000000  0.000000      2.000000
  0.046942  0.000000  0.000000      2.000000
  0.062590  0.000000  0.000000      2.000000
  0.078237  0.000000  0.000000      2.000000
  0.093884  0.000000  0.000000      2.000000
  0.109532  0.000000  0.000000      2.000000
  0.125179  0.000000  0.000000      2.000000
  0.140827  0.000000  0.000000      2.000000
  0.000000  0.015636  0.000000      2.000000
  0.015647  0.015636  0.000000      2.000000
  0.031295  0.015636  0.000000      2.000000
  0.046942  0.015636  0.000000      2.000000
  0.062590  0.015636  0.000000      2.000000
  0.078237  0.015636  0.000000      2.000000
  0.093884  0.015636  0.000000      2.000000
  0.109532  0.015636  0.000000      2.000000
  0.125179  0.015636  0.000000      2.000000
  0.140827  0.015636  0.000000      2.000000
 -0.140827  0.015636  0.000000      2.000000
 -0.125179  0.015636  0.000000      2.000000
 -0.109532  0.015636  0.000000      2.000000
 -0.093884  0.015636  0.000000      2.000000
 -0.078237  0.015636  0.000000      2.000000
 -0.062590  0.015636  0.000000      2.000000
 -0.046942  0.015636  0.000000      2.000000
 -0.031295  0.015636  0.000000      2.000000
 -0.015647  0.015636  0.000000      2.000000
  0.000000  0.031271  0.000000      2.000000
  0.015647  0.031271  0.000000      2.000000
  0.031295  0.031271  0.000000      2.000000
  0.046942  0.031271  0.000000      2.000000
  0.062590  0.031271  0.000000      2.000000
  0.078237  0.031271  0.000000      2.000000
  0.093884  0.031271  0.000000      2.000000
  0.109532  0.031271  0.000000      2.000000
  0.125179  0.031271  0.000000      2.000000
  0.140827  0.031271  0.000000      2.000000
 -0.140827  0.031271  0.000000      2.000000
 -0.125179  0.031271  0.000000      2.000000
 -0.109532  0.031271  0.000000      2.000000
 -0.093884  0.031271  0.000000      2.000000
 -0.078237  0.031271  0.000000      2.000000
 -0.062590  0.031271  0.000000      2.000000
 -0.046942  0.031271  0.000000      2.000000
 -0.031295  0.031271  0.000000      2.000000
 -0.015647  0.031271  0.000000      2.000000
  0.000000  0.046907  0.000000      2.000000
  0.015647  0.046907  0.000000      2.000000
  0.031295  0.046907  0.000000      2.000000
  0.046942  0.046907  0.000000      2.000000
  0.062590  0.046907  0.000000      2.000000
  0.078237  0.046907  0.000000      2.000000
  0.093884  0.046907  0.000000      2.000000
  0.109532  0.046907  0.000000      2.000000
  0.125179  0.046907  0.000000      2.000000
  0.140827  0.046907  0.000000      2.000000
 -0.140827  0.046907  0.000000      2.000000
 -0.125179  0.046907  0.000000      2.000000
 -0.109532  0.046907  0.000000      2.000000
 -0.093884  0.046907  0.000000      2.000000
 -0.078237  0.046907  0.000000      2.000000
 -0.062590  0.046907  0.000000      2.000000
 -0.046942  0.046907  0.000000      2.000000
 -0.031295  0.046907  0.000000      2.000000
 -0.015647  0.046907  0.000000      2.000000
  0.000000  0.062542  0.000000      2.000000
  0.015647  0.062542  0.000000      2.000000
  0.031295  0.062542  0.000000      2.000000
  0.046942  0.062542  0.000000      2.000000
  0.062590  0.062542  0.000000      2.000000
  0.078237  0.062542  0.000000      2.000000
  0.093884  0.062542  0.000000      2.000000
  0.109532  0.062542  0.000000      2.000000
  0.125179  0.062542  0.000000      2.000000
  0.140827  0.062542  0.000000      2.000000
 -0.140827  0.062542  0.000000      2.000000
 -0.125179  0.062542  0.000000      2.000000
 -0.109532  0.062542  0.000000      2.000000
 -0.093884  0.062542  0.000000      2.000000
 -0.078237  0.062542  0.000000      2.000000
 -0.062590  0.062542  0.000000      2.000000
 -0.046942  0.062542  0.000000      2.000000
 -0.031295  0.062542  0.000000      2.000000
 -0.015647  0.062542  0.000000      2.000000
  0.000000  0.078178  0.000000      2.000000
  0.015647  0.078178  0.000000      2.000000
  0.031295  0.078178  0.000000      2.000000
  0.046942  0.078178  0.000000      2.000000
  0.062590  0.078178  0.000000      2.000000
  0.078237  0.078178  0.000000      2.000000
  0.093884  0.078178  0.000000      2.000000
  0.109532  0.078178  0.000000      2.000000
  0.125179  0.078178  0.000000      2.000000
  0.140827  0.078178  0.000000      2.000000
 -0.140827  0.078178  0.000000      2.000000
 -0.125179  0.078178  0.000000      2.000000
 -0.109532  0.078178  0.000000      2.000000
 -0.093884  0.078178  0.000000      2.000000
 -0.078237  0.078178  0.000000      2.000000
 -0.062590  0.078178  0.000000      2.000000
 -0.046942  0.078178  0.000000      2.000000
 -0.031295  0.078178  0.000000      2.000000
 -0.015647  0.078178  0.000000      2.000000
 


--------------------------------------------------------------------------------------------------------




 Dimension of arrays:
   k-points           NKPTS =    105   k-points in BZ     NKDIM =    105   number of bands    NBANDS=     24
   number of dos      NEDOS =    301   number of ions     NIONS =      6
   non local maximal  LDIM  =      6   non local SUM 2l+1 LMDIM =     18
   total plane-waves  NPLWV = 217728
   max r-space proj   IRMAX =      1   max aug-charges    IRDMAX=  35489
   dimension x,y,z NGX =    28 NGY =   48 NGZ =  162
   dimension x,y,z NGXF=    56 NGYF=   96 NGZF=  324
   support grid    NGXF=    56 NGYF=   96 NGZF=  324
   ions per type =               2   2   2
   NGX,Y,Z   is equivalent  to a cutoff of  13.84, 13.72, 13.30 a.u.
   NGXF,Y,Z  is equivalent  to a cutoff of  27.68, 27.45, 26.60 a.u.

 SYSTEM =  unknown system                          
 POSCAR =  Generated by VASPKIT code               

 Startparameter for this run:
   NWRITE =      2    write-flag & timer
   PREC   = accura    normal or accurate (medium, high low for compatibility)
   ISTART =      0    job   : 0-new  1-cont  2-samecut
   ICHARG =      2    charge: 1-file 2-atom 10-const
   ISPIN  =      1    spin polarized calculation?
   LNONCOLLINEAR =      F non collinear calculations
   LSORBIT =      F    spin-orbit coupling
   INIWAV =      1    electr: 0-lowe 1-rand  2-diag
   LASPH  =      F    aspherical Exc in radial PAW
   METAGGA=      F    non-selfconsistent MetaGGA calc.

 Electronic Relaxation 1
   ENCUT  =  600.0 eV  44.10 Ry    6.64 a.u.   6.72 11.61 40.45*2*pi/ulx,y,z
   ENINI  =  600.0     initial cutoff
   ENAUG  =  368.8 eV  augmentation charge cutoff
   NELM   =     60;   NELMIN=  2; NELMDL= -5     # of ELM steps 
   EDIFF  = 0.1E-06   stopping-criterion for ELM
   LREAL  =      F    real-space projection
   NLSPLINE    = F    spline interpolate recip. space projectors
   LCOMPAT=      F    compatible to vasp.4.4
   GGA_COMPAT  = T    GGA compatible to vasp.4.4-vasp.4.6
   LMAXPAW     = -100 max onsite density
   LMAXMIX     =    2 max onsite mixed and CHGCAR
   VOSKOWN=      0    Vosko Wilk Nusair interpolation
   ROPT   =    0.00000   0.00000   0.00000
 Ionic relaxation
   EDIFFG = -.1E-02   stopping-criterion for IOM
   NSW    =    100    number of steps for IOM
   NBLOCK =      1;   KBLOCK =    100    inner block; outer block 
   IBRION =      2    ionic relax: 0-MD 1-quasi-New 2-CG
   NFREE  =      1    steps in history (QN), initial steepest desc. (CG)
   ISIF   =      2    stress and relaxation
   IWAVPR =     11    prediction:  0-non 1-charg 2-wave 3-comb
   ISYM   =      0    0-nonsym 1-usesym 2-fastsym
   LCORR  =      T    Harris-Foulkes like correction to forces

   POTIM  = 0.5000    time-step for ionic-motion
   TEIN   =    0.0    initial temperature
   TEBEG  =    0.0;   TEEND  =   0.0 temperature during run
   SMASS  =  -3.00    Nose mass-parameter (am)
   estimated Nose-frequenzy (Omega)   =  0.10E-29 period in steps =****** mass=  -0.259E-27a.u.
   SCALEE = 1.0000    scale energy and forces
   NPACO  =    256;   APACO  = 16.0  distance and # of slots for P.C.
   PSTRESS=    0.0 pullay stress

  Mass of Ions in am
   POMASS =  95.94 32.07127.60
  Ionic Valenz
   ZVAL   =   6.00  6.00  6.00
  Atomic Wigner-Seitz radii
   RWIGS  =  -1.00 -1.00 -1.00
  virtual crystal weights 
   VCA    =   1.00  1.00  1.00
   NELECT =      36.0000    total number of electrons
   NUPDOWN=      -1.0000    fix difference up-down

 DOS related values:
   EMIN   =  10.00;   EMAX   =-10.00  energy-range for DOS
   EFERMI =   0.00
   ISMEAR =     0;   SIGMA  =   0.10  broadening in eV -4-tet -1-fermi 0-gaus

 Electronic relaxation 2 (details)
   IALGO  =     38    algorithm
   LDIAG  =      T    sub-space diagonalisation (order eigenvalues)
   LSUBROT=      F    optimize rotation matrix (better conditioning)
   TURBO    =      0    0=normal 1=particle mesh
   IRESTART =      0    0=no restart 2=restart with 2 vectors
   NREBOOT  =      0    no. of reboots
   NMIN     =      0    reboot dimension
   EREF     =   0.00    reference energy to select bands
   IMIX   =      4    mixing-type and parameters
     AMIX     =   0.40;   BMIX     =  1.00
     AMIX_MAG =   1.60;   BMIX_MAG =  1.00
     AMIN     =   0.10
     WC   =   100.;   INIMIX=   1;  MIXPRE=   1;  MAXMIX= -45

 Intra band minimization:
   WEIMIN = 0.0010     energy-eigenvalue tresh-hold
   EBREAK =  0.10E-08  absolut break condition
   DEPER  =   0.30     relativ break condition  

   TIME   =   0.40     timestep for ELM

  volume/ion in A,a.u.               =      66.01       445.48
  Fermi-wavevector in a.u.,A,eV,Ry     =   0.736064  1.390959  7.371503  0.541790
  Thomas-Fermi vector in A             =   1.829413
 
 Write flags
   LWAVE        =      F    write WAVECAR
   LDOWNSAMPLE  =      F    k-point downsampling of WAVECAR
   LCHARG       =      T    write CHGCAR
   LVTOT        =      F    write LOCPOT, total local potential
   LVHAR        =      F    write LOCPOT, Hartree potential only
   LELF         =      F    write electronic localiz. function (ELF)
   LORBIT       =      0    0 simple, 1 ext, 2 COOP (PROOUT), +10 PAW based schemes


 Dipole corrections
   LMONO  =      F    monopole corrections only (constant potential shift)
   LDIPOL =      T    correct potential (dipole corrections)
   IDIPOL =      3    1-x, 2-y, 3-z, 4-all directions 
   EPSILON=  1.0000000 bulk dielectric constant

 Exchange correlation treatment:
   GGA     =    PE    GGA type
   LEXCH   =     8    internal setting for exchange type
   VOSKOWN=      0    Vosko Wilk Nusair interpolation
   LHFCALC =     F    Hartree Fock is set to
   LHFONE  =     F    Hartree Fock one center treatment
   AEXX    =    0.0000 exact exchange contribution

 Linear response parameters
   LEPSILON=     F    determine dielectric tensor
   LRPA    =     F    only Hartree local field effects (RPA)
   LNABLA  =     F    use nabla operator in PAW spheres
   LVEL    =     F    velocity operator in full k-point grid
   LINTERFAST=   F  fast interpolation
   KINTER  =     0    interpolate to denser k-point grid
   CSHIFT  =0.1000    complex shift for real part using Kramers Kronig
   OMEGAMAX=  -1.0    maximum frequency
   DEG_THRESHOLD= 0.2000000E-02 threshold for treating states as degnerate
   RTIME   =   -0.100 relaxation time in fs
  (WPLASMAI=    0.000 imaginary part of plasma frequency in eV, 0.658/RTIME)
   DFIELD  = 0.0000000 0.0000000 0.0000000 field for delta impulse in time
 
 Orbital magnetization related:
   ORBITALMAG=     F  switch on orbital magnetization
   LCHIMAG   =     F  perturbation theory with respect to B field
   DQ        =  0.001000  dq finite difference perturbation B field
   LLRAUG    =     F  two centre corrections for induced B field



--------------------------------------------------------------------------------------------------------


 conjugate gradient relaxation of ions
 charge density and potential will be updated during run
 non-spin polarized calculation
 Variant of blocked Davidson
 Davidson routine will perform the subspace rotation
 perform sub-space diagonalisation
    after iterative eigenvector-optimisation
 modified Broyden-mixing scheme, WC =      100.0
 initial mixing is a Kerker type mixing with AMIX =  0.4000 and BMIX =      1.0000
 Hartree-type preconditioning will be used
 using additional bands            6
 reciprocal scheme for non local part
 use partial core corrections
 calculate Harris-corrections to forces 
   (improved forces if not selfconsistent)
 use gradient corrections 
 use of overlap-Matrix (Vanderbilt PP)
 Gauss-broadening in eV      SIGMA  =   0.10


--------------------------------------------------------------------------------------------------------


  energy-cutoff  :      600.00
  volume of cell :      396.08
      direct lattice vectors                 reciprocal lattice vectors
     3.363599539  0.000000000  0.000000000     0.297300552  0.000000000  0.000000000
     0.000000000  5.814273975  0.000000000     0.000000000  0.171990519  0.000000000
     0.000000000  0.000000000 20.252588272     0.000000000  0.000000000  0.049376405

  length of vectors
     3.363599539  5.814273975 20.252588272     0.297300552  0.171990519  0.049376405


 
 k-points in units of 2pi/SCALE and weight: K-Spacing Value to Generate K-Mesh: 0.01
   0.00000000  0.00000000  0.00000000       0.005
   0.01564740  0.00000000  0.00000000       0.010
   0.03129479  0.00000000  0.00000000       0.010
   0.04694219  0.00000000  0.00000000       0.010
   0.06258959  0.00000000  0.00000000       0.010
   0.07823699  0.00000000  0.00000000       0.010
   0.09388438  0.00000000  0.00000000       0.010
   0.10953178  0.00000000  0.00000000       0.010
   0.12517918  0.00000000  0.00000000       0.010
   0.14082658  0.00000000  0.00000000       0.010
   0.00000000  0.01563550  0.00000000       0.010
   0.01564740  0.01563550  0.00000000       0.010
   0.03129479  0.01563550  0.00000000       0.010
   0.04694219  0.01563550  0.00000000       0.010
   0.06258959  0.01563550  0.00000000       0.010
   0.07823699  0.01563550  0.00000000       0.010
   0.09388438  0.01563550  0.00000000       0.010
   0.10953178  0.01563550  0.00000000       0.010
   0.12517918  0.01563550  0.00000000       0.010
   0.14082658  0.01563550  0.00000000       0.010
  -0.14082658  0.01563550  0.00000000       0.010
  -0.12517918  0.01563550  0.00000000       0.010
  -0.10953178  0.01563550  0.00000000       0.010
  -0.09388438  0.01563550  0.00000000       0.010
  -0.07823699  0.01563550  0.00000000       0.010
  -0.06258959  0.01563550  0.00000000       0.010
  -0.04694219  0.01563550  0.00000000       0.010
  -0.03129479  0.01563550  0.00000000       0.010
  -0.01564740  0.01563550  0.00000000       0.010
   0.00000000  0.03127100  0.00000000       0.010
   0.01564740  0.03127100  0.00000000       0.010
   0.03129479  0.03127100  0.00000000       0.010
   0.04694219  0.03127100  0.00000000       0.010
   0.06258959  0.03127100  0.00000000       0.010
   0.07823699  0.03127100  0.00000000       0.010
   0.09388438  0.03127100  0.00000000       0.010
   0.10953178  0.03127100  0.00000000       0.010
   0.12517918  0.03127100  0.00000000       0.010
   0.14082658  0.03127100  0.00000000       0.010
  -0.14082658  0.03127100  0.00000000       0.010
  -0.12517918  0.03127100  0.00000000       0.010
  -0.10953178  0.03127100  0.00000000       0.010
  -0.09388438  0.03127100  0.00000000       0.010
  -0.07823699  0.03127100  0.00000000       0.010
  -0.06258959  0.03127100  0.00000000       0.010
  -0.04694219  0.03127100  0.00000000       0.010
  -0.03129479  0.03127100  0.00000000       0.010
  -0.01564740  0.03127100  0.00000000       0.010
   0.00000000  0.04690651  0.00000000       0.010
   0.01564740  0.04690651  0.00000000       0.010
   0.03129479  0.04690651  0.00000000       0.010
   0.04694219  0.04690651  0.00000000       0.010
   0.06258959  0.04690651  0.00000000       0.010
   0.07823699  0.04690651  0.00000000       0.010
   0.09388438  0.04690651  0.00000000       0.010
   0.10953178  0.04690651  0.00000000       0.010
   0.12517918  0.04690651  0.00000000       0.010
   0.14082658  0.04690651  0.00000000       0.010
  -0.14082658  0.04690651  0.00000000       0.010
  -0.12517918  0.04690651  0.00000000       0.010
  -0.10953178  0.04690651  0.00000000       0.010
  -0.09388438  0.04690651  0.00000000       0.010
  -0.07823699  0.04690651  0.00000000       0.010
  -0.06258959  0.04690651  0.00000000       0.010
  -0.04694219  0.04690651  0.00000000       0.010
  -0.03129479  0.04690651  0.00000000       0.010
  -0.01564740  0.04690651  0.00000000       0.010
   0.00000000  0.06254201  0.00000000       0.010
   0.01564740  0.06254201  0.00000000       0.010
   0.03129479  0.06254201  0.00000000       0.010
   0.04694219  0.06254201  0.00000000       0.010
   0.06258959  0.06254201  0.00000000       0.010
   0.07823699  0.06254201  0.00000000       0.010
   0.09388438  0.06254201  0.00000000       0.010
   0.10953178  0.06254201  0.00000000       0.010
   0.12517918  0.06254201  0.00000000       0.010
   0.14082658  0.06254201  0.00000000       0.010
  -0.14082658  0.06254201  0.00000000       0.010
  -0.12517918  0.06254201  0.00000000       0.010
  -0.10953178  0.06254201  0.00000000       0.010
  -0.09388438  0.06254201  0.00000000       0.010
  -0.07823699  0.06254201  0.00000000       0.010
  -0.06258959  0.06254201  0.00000000       0.010
  -0.04694219  0.06254201  0.00000000       0.010
  -0.03129479  0.06254201  0.00000000       0.010
  -0.01564740  0.06254201  0.00000000       0.010
   0.00000000  0.07817751  0.00000000       0.010
   0.01564740  0.07817751  0.00000000       0.010
   0.03129479  0.07817751  0.00000000       0.010
   0.04694219  0.07817751  0.00000000       0.010
   0.06258959  0.07817751  0.00000000       0.010
   0.07823699  0.07817751  0.00000000       0.010
   0.09388438  0.07817751  0.00000000       0.010
   0.10953178  0.07817751  0.00000000       0.010
   0.12517918  0.07817751  0.00000000       0.010
   0.14082658  0.07817751  0.00000000       0.010
  -0.14082658  0.07817751  0.00000000       0.010
  -0.12517918  0.07817751  0.00000000       0.010
  -0.10953178  0.07817751  0.00000000       0.010
  -0.09388438  0.07817751  0.00000000       0.010
  -0.07823699  0.07817751  0.00000000       0.010
  -0.06258959  0.07817751  0.00000000       0.010
  -0.04694219  0.07817751  0.00000000       0.010
  -0.03129479  0.07817751  0.00000000       0.010
  -0.01564740  0.07817751  0.00000000       0.010
 
 k-points in reciprocal lattice and weights: K-Spacing Value to Generate K-Mesh: 0.01
   0.00000000  0.00000000  0.00000000       0.005
   0.05263158  0.00000000  0.00000000       0.010
   0.10526316  0.00000000  0.00000000       0.010
   0.15789474  0.00000000  0.00000000       0.010
   0.21052632  0.00000000  0.00000000       0.010
   0.26315789  0.00000000  0.00000000       0.010
   0.31578947  0.00000000  0.00000000       0.010
   0.36842105  0.00000000  0.00000000       0.010
   0.42105263  0.00000000  0.00000000       0.010
   0.47368421  0.00000000  0.00000000       0.010
   0.00000000  0.09090909  0.00000000       0.010
   0.05263158  0.09090909  0.00000000       0.010
   0.10526316  0.09090909  0.00000000       0.010
   0.15789474  0.09090909  0.00000000       0.010
   0.21052632  0.09090909  0.00000000       0.010
   0.26315789  0.09090909  0.00000000       0.010
   0.31578947  0.09090909  0.00000000       0.010
   0.36842105  0.09090909  0.00000000       0.010
   0.42105263  0.09090909  0.00000000       0.010
   0.47368421  0.09090909  0.00000000       0.010
  -0.47368421  0.09090909  0.00000000       0.010
  -0.42105263  0.09090909  0.00000000       0.010
  -0.36842105  0.09090909  0.00000000       0.010
  -0.31578947  0.09090909  0.00000000       0.010
  -0.26315789  0.09090909  0.00000000       0.010
  -0.21052632  0.09090909  0.00000000       0.010
  -0.15789474  0.09090909  0.00000000       0.010
  -0.10526316  0.09090909  0.00000000       0.010
  -0.05263158  0.09090909  0.00000000       0.010
   0.00000000  0.18181818  0.00000000       0.010
   0.05263158  0.18181818  0.00000000       0.010
   0.10526316  0.18181818  0.00000000       0.010
   0.15789474  0.18181818  0.00000000       0.010
   0.21052632  0.18181818  0.00000000       0.010
   0.26315789  0.18181818  0.00000000       0.010
   0.31578947  0.18181818  0.00000000       0.010
   0.36842105  0.18181818  0.00000000       0.010
   0.42105263  0.18181818  0.00000000       0.010
   0.47368421  0.18181818  0.00000000       0.010
  -0.47368421  0.18181818  0.00000000       0.010
  -0.42105263  0.18181818  0.00000000       0.010
  -0.36842105  0.18181818  0.00000000       0.010
  -0.31578947  0.18181818  0.00000000       0.010
  -0.26315789  0.18181818  0.00000000       0.010
  -0.21052632  0.18181818  0.00000000       0.010
  -0.15789474  0.18181818  0.00000000       0.010
  -0.10526316  0.18181818  0.00000000       0.010
  -0.05263158  0.18181818  0.00000000       0.010
   0.00000000  0.27272727  0.00000000       0.010
   0.05263158  0.27272727  0.00000000       0.010
   0.10526316  0.27272727  0.00000000       0.010
   0.15789474  0.27272727  0.00000000       0.010
   0.21052632  0.27272727  0.00000000       0.010
   0.26315789  0.27272727  0.00000000       0.010
   0.31578947  0.27272727  0.00000000       0.010
   0.36842105  0.27272727  0.00000000       0.010
   0.42105263  0.27272727  0.00000000       0.010
   0.47368421  0.27272727  0.00000000       0.010
  -0.47368421  0.27272727  0.00000000       0.010
  -0.42105263  0.27272727  0.00000000       0.010
  -0.36842105  0.27272727  0.00000000       0.010
  -0.31578947  0.27272727  0.00000000       0.010
  -0.26315789  0.27272727  0.00000000       0.010
  -0.21052632  0.27272727  0.00000000       0.010
  -0.15789474  0.27272727  0.00000000       0.010
  -0.10526316  0.27272727  0.00000000       0.010
  -0.05263158  0.27272727  0.00000000       0.010
   0.00000000  0.36363636  0.00000000       0.010
   0.05263158  0.36363636  0.00000000       0.010
   0.10526316  0.36363636  0.00000000       0.010
   0.15789474  0.36363636  0.00000000       0.010
   0.21052632  0.36363636  0.00000000       0.010
   0.26315789  0.36363636  0.00000000       0.010
   0.31578947  0.36363636  0.00000000       0.010
   0.36842105  0.36363636  0.00000000       0.010
   0.42105263  0.36363636  0.00000000       0.010
   0.47368421  0.36363636  0.00000000       0.010
  -0.47368421  0.36363636  0.00000000       0.010
  -0.42105263  0.36363636  0.00000000       0.010
  -0.36842105  0.36363636  0.00000000       0.010
  -0.31578947  0.36363636  0.00000000       0.010
  -0.26315789  0.36363636  0.00000000       0.010
  -0.21052632  0.36363636  0.00000000       0.010
  -0.15789474  0.36363636  0.00000000       0.010
  -0.10526316  0.36363636  0.00000000       0.010
  -0.05263158  0.36363636  0.00000000       0.010
   0.00000000  0.45454545  0.00000000       0.010
   0.05263158  0.45454545  0.00000000       0.010
   0.10526316  0.45454545  0.00000000       0.010
   0.15789474  0.45454545  0.00000000       0.010
   0.21052632  0.45454545  0.00000000       0.010
   0.26315789  0.45454545  0.00000000       0.010
   0.31578947  0.45454545  0.00000000       0.010
   0.36842105  0.45454545  0.00000000       0.010
   0.42105263  0.45454545  0.00000000       0.010
   0.47368421  0.45454545  0.00000000       0.010
  -0.47368421  0.45454545  0.00000000       0.010
  -0.42105263  0.45454545  0.00000000       0.010
  -0.36842105  0.45454545  0.00000000       0.010
  -0.31578947  0.45454545  0.00000000       0.010
  -0.26315789  0.45454545  0.00000000       0.010
  -0.21052632  0.45454545  0.00000000       0.010
  -0.15789474  0.45454545  0.00000000       0.010
  -0.10526316  0.45454545  0.00000000       0.010
  -0.05263158  0.45454545  0.00000000       0.010
 
 position of ions in fractional coordinates (direct lattice) 
   0.49999997  0.16666654  0.50703967
   0.00000000  0.66666651  0.50703967
   0.49999997  0.83333325  0.57974952
   0.00000000  0.33333322  0.57974952
   0.50000000  0.83333325  0.41321075
   0.00000000  0.33333325  0.41321075
 
 position of ions in cartesian coordinates  (Angst):
   1.68179967  0.96904491 10.26886559
   0.00000000  3.87618173 10.26886559
   1.68179967  4.84522785 11.74142843
   0.00000000  1.93809069 11.74142843
   1.68179977  4.84522785  8.36858719
   0.00000000  1.93809086  8.36858719
 


--------------------------------------------------------------------------------------------------------


 k-point  1 :   0.0000 0.0000 0.0000  plane waves:   13251
 k-point  2 :   0.0526 0.0000 0.0000  plane waves:   13261
 k-point  3 :   0.1053 0.0000 0.0000  plane waves:   13241
 k-point  4 :   0.1579 0.0000 0.0000  plane waves:   13233
 k-point  5 :   0.2105 0.0000 0.0000  plane waves:   13237
 k-point  6 :   0.2632 0.0000 0.0000  plane waves:   13207
 k-point  7 :   0.3158 0.0000 0.0000  plane waves:   13226
 k-point  8 :   0.3684 0.0000 0.0000  plane waves:   13226
 k-point  9 :   0.4211 0.0000 0.0000  plane waves:   13210
 k-point 10 :   0.4737 0.0000 0.0000  plane waves:   13198
 k-point 11 :   0.0000 0.0909 0.0000  plane waves:   13255
 k-point 12 :   0.0526 0.0909 0.0000  plane waves:   13253
 k-point 13 :   0.1053 0.0909 0.0000  plane waves:   13247
 k-point 14 :   0.1579 0.0909 0.0000  plane waves:   13227
 k-point 15 :   0.2105 0.0909 0.0000  plane waves:   13235
 k-point 16 :   0.2632 0.0909 0.0000  plane waves:   13218
 k-point 17 :   0.3158 0.0909 0.0000  plane waves:   13197
 k-point 18 :   0.3684 0.0909 0.0000  plane waves:   13210
 k-point 19 :   0.4211 0.0909 0.0000  plane waves:   13221
 k-point 20 :   0.4737 0.0909 0.0000  plane waves:   13201
 k-point 21 :  -0.4737 0.0909 0.0000  plane waves:   13201
 k-point 22 :  -0.4211 0.0909 0.0000  plane waves:   13221
 k-point 23 :  -0.3684 0.0909 0.0000  plane waves:   13210
 k-point 24 :  -0.3158 0.0909 0.0000  plane waves:   13197
 k-point 25 :  -0.2632 0.0909 0.0000  plane waves:   13218
 k-point 26 :  -0.2105 0.0909 0.0000  plane waves:   13235
 k-point 27 :  -0.1579 0.0909 0.0000  plane waves:   13227
 k-point 28 :  -0.1053 0.0909 0.0000  plane waves:   13247
 k-point 29 :  -0.0526 0.0909 0.0000  plane waves:   13253
 k-point 30 :   0.0000 0.1818 0.0000  plane waves:   13251
 k-point 31 :   0.0526 0.1818 0.0000  plane waves:   13249
 k-point 32 :   0.1053 0.1818 0.0000  plane waves:   13227
 k-point 33 :   0.1579 0.1818 0.0000  plane waves:   13209
 k-point 34 :   0.2105 0.1818 0.0000  plane waves:   13223
 k-point 35 :   0.2632 0.1818 0.0000  plane waves:   13195
 k-point 36 :   0.3158 0.1818 0.0000  plane waves:   13210
 k-point 37 :   0.3684 0.1818 0.0000  plane waves:   13221
 k-point 38 :   0.4211 0.1818 0.0000  plane waves:   13222
 k-point 39 :   0.4737 0.1818 0.0000  plane waves:   13211
 k-point 40 :  -0.4737 0.1818 0.0000  plane waves:   13211
 k-point 41 :  -0.4211 0.1818 0.0000  plane waves:   13222
 k-point 42 :  -0.3684 0.1818 0.0000  plane waves:   13221
 k-point 43 :  -0.3158 0.1818 0.0000  plane waves:   13210
 k-point 44 :  -0.2632 0.1818 0.0000  plane waves:   13195
 k-point 45 :  -0.2105 0.1818 0.0000  plane waves:   13223
 k-point 46 :  -0.1579 0.1818 0.0000  plane waves:   13209
 k-point 47 :  -0.1053 0.1818 0.0000  plane waves:   13227
 k-point 48 :  -0.0526 0.1818 0.0000  plane waves:   13249
 k-point 49 :   0.0000 0.2727 0.0000  plane waves:   13217
 k-point 50 :   0.0526 0.2727 0.0000  plane waves:   13232
 k-point 51 :   0.1053 0.2727 0.0000  plane waves:   13230
 k-point 52 :   0.1579 0.2727 0.0000  plane waves:   13221
 k-point 53 :   0.2105 0.2727 0.0000  plane waves:   13217
 k-point 54 :   0.2632 0.2727 0.0000  plane waves:   13219
 k-point 55 :   0.3158 0.2727 0.0000  plane waves:   13188
 k-point 56 :   0.3684 0.2727 0.0000  plane waves:   13203
 k-point 57 :   0.4211 0.2727 0.0000  plane waves:   13215
 k-point 58 :   0.4737 0.2727 0.0000  plane waves:   13223
 k-point 59 :  -0.4737 0.2727 0.0000  plane waves:   13223
 k-point 60 :  -0.4211 0.2727 0.0000  plane waves:   13215
 k-point 61 :  -0.3684 0.2727 0.0000  plane waves:   13203
 k-point 62 :  -0.3158 0.2727 0.0000  plane waves:   13188
 k-point 63 :  -0.2632 0.2727 0.0000  plane waves:   13219
 k-point 64 :  -0.2105 0.2727 0.0000  plane waves:   13217
 k-point 65 :  -0.1579 0.2727 0.0000  plane waves:   13221
 k-point 66 :  -0.1053 0.2727 0.0000  plane waves:   13230
 k-point 67 :  -0.0526 0.2727 0.0000  plane waves:   13232
 k-point 68 :   0.0000 0.3636 0.0000  plane waves:   13193
 k-point 69 :   0.0526 0.3636 0.0000  plane waves:   13218
 k-point 70 :   0.1053 0.3636 0.0000  plane waves:   13221
 k-point 71 :   0.1579 0.3636 0.0000  plane waves:   13208
 k-point 72 :   0.2105 0.3636 0.0000  plane waves:   13216
 k-point 73 :   0.2632 0.3636 0.0000  plane waves:   13196
 k-point 74 :   0.3158 0.3636 0.0000  plane waves:   13199
 k-point 75 :   0.3684 0.3636 0.0000  plane waves:   13204
 k-point 76 :   0.4211 0.3636 0.0000  plane waves:   13219
 k-point 77 :   0.4737 0.3636 0.0000  plane waves:   13220
 k-point 78 :  -0.4737 0.3636 0.0000  plane waves:   13220
 k-point 79 :  -0.4211 0.3636 0.0000  plane waves:   13219
 k-point 80 :  -0.3684 0.3636 0.0000  plane waves:   13204
 k-point 81 :  -0.3158 0.3636 0.0000  plane waves:   13199
 k-point 82 :  -0.2632 0.3636 0.0000  plane waves:   13196
 k-point 83 :  -0.2105 0.3636 0.0000  plane waves:   13216
 k-point 84 :  -0.1579 0.3636 0.0000  plane waves:   13208
 k-point 85 :  -0.1053 0.3636 0.0000  plane waves:   13221
 k-point 86 :  -0.0526 0.3636 0.0000  plane waves:   13218
 k-point 87 :   0.0000 0.4545 0.0000  plane waves:   13230
 k-point 88 :   0.0526 0.4545 0.0000  plane waves:   13198
 k-point 89 :   0.1053 0.4545 0.0000  plane waves:   13185
 k-point 90 :   0.1579 0.4545 0.0000  plane waves:   13195
 k-point 91 :   0.2105 0.4545 0.0000  plane waves:   13201
 k-point 92 :   0.2632 0.4545 0.0000  plane waves:   13203
 k-point 93 :   0.3158 0.4545 0.0000  plane waves:   13200
 k-point 94 :   0.3684 0.4545 0.0000  plane waves:   13212
 k-point 95 :   0.4211 0.4545 0.0000  plane waves:   13230
 k-point 96 :   0.4737 0.4545 0.0000  plane waves:   13258
 k-point 97 :  -0.4737 0.4545 0.0000  plane waves:   13258
 k-point 98 :  -0.4211 0.4545 0.0000  plane waves:   13230
 k-point 99 :  -0.3684 0.4545 0.0000  plane waves:   13212
 k-point ** :  -0.3158 0.4545 0.0000  plane waves:   13200
 k-point ** :  -0.2632 0.4545 0.0000  plane waves:   13203
 k-point ** :  -0.2105 0.4545 0.0000  plane waves:   13201
 k-point ** :  -0.1579 0.4545 0.0000  plane waves:   13195
 k-point ** :  -0.1053 0.4545 0.0000  plane waves:   13185
 k-point ** :  -0.0526 0.4545 0.0000  plane waves:   13198

 maximum and minimum number of plane-waves per node :       573      530

 maximum number of plane-waves:     13261
 maximum index in each direction: 
   IXMAX=    7   IYMAX=   11   IZMAX=   40
   IXMIN=   -7   IYMIN=  -12   IZMIN=  -40


 parallel 3D FFT for wavefunctions:
    minimum data exchange during FFTs selected (reduces bandwidth)
 parallel 3D FFT for charge:
    minimum data exchange during FFTs selected (reduces bandwidth)


 total amount of memory used by VASP MPI-rank0    62433. kBytes
=======================================================================

   base      :      30000. kBytes
   nonl-proj :      25455. kBytes
   fftplans  :       1397. kBytes
   grid      :       2623. kBytes
   one-center:         15. kBytes
   wavefun   :       2943. kBytes
 
     INWAV:  cpu time    0.0001: real time    0.0002
 Broyden mixing: mesh for mixing (old mesh)
   NGX = 13   NGY = 23   NGZ = 81
  (NGX  = 56   NGY  = 96   NGZ  =324)
  gives a total of  24219 points

 initial charge density was supplied:
 charge density of overlapping atoms calculated
 number of electron      36.0000000 magnetization 
 keeping initial charge density in first step


--------------------------------------------------------------------------------------------------------


 Maximum index for augmentation-charges         1255 (set IRDMAX)


--------------------------------------------------------------------------------------------------------


 First call to EWALD:  gamma=   0.241
 Maximum number of real-space cells 5x 3x 1
 Maximum number of reciprocal cells 2x 2x 7

    FEWALD:  cpu time    0.0015: real time    0.0015


--------------------------------------- Iteration      1(   1)  ---------------------------------------


    POTLOK:  cpu time    0.0207: real time    0.0659
    SETDIJ:  cpu time    0.0057: real time    0.0057
     EDDAV:  cpu time    1.2054: real time    1.2105
       DOS:  cpu time    0.0015: real time    0.0015
    --------------------------------------------
      LOOP:  cpu time    1.2333: real time    1.2836

 eigenvalue-minimisations  :  5040
 total energy-change (2. order) : 0.2729538E+03  (-0.1301641E+04)
 number of electron      36.0000000 magnetization 
 augmentation part       36.0000000 magnetization 

 DIPCOR: dipole corrections for dipol
 direction  3 min pos     1,
 dipolmoment           0.000000      0.000000      0.000002 electrons x Angstroem
 Tr[quadrupol]      -124.238999

 energy correction for charged system         0.000000 eV
 dipol+quadrupol energy correction           -0.000000 eV
 added-field ion interaction          0.000000 eV  (added to PSCEN)


 Free energy of the ion-electron system (eV)
  ---------------------------------------------------
  alpha Z        PSCENC =        26.15658944
  Ewald energy   TEWEN  =      4191.05914181
  -Hartree energ DENC   =     -5512.13060162
  -exchange      EXHF   =         0.00000000
  -V(xc)+E(xc)   XCENC  =      -153.05699360
  PAW double counting   =      1381.62273368    -1155.94054365
  entropy T*S    EENTRO =        -0.01460461
  eigenvalues    EBANDS =        60.03631028
  atomic energy  EATOM  =      1435.22174307
  Solvation  Ediel_sol  =         0.00000000
  ---------------------------------------------------
  free energy    TOTEN  =       272.95377479 eV

  energy without entropy =      272.96837940  energy(sigma->0) =      272.96107709


--------------------------------------------------------------------------------------------------------




--------------------------------------- Iteration      1(   2)  ---------------------------------------


     EDDAV:  cpu time    1.4125: real time    1.4128
       DOS:  cpu time    0.0014: real time    0.0014
    --------------------------------------------
      LOOP:  cpu time    1.4140: real time    1.4143

 eigenvalue-minimisations  :  7912
 total energy-change (2. order) :-0.2795928E+03  (-0.2722214E+03)
 number of electron      36.0000000 magnetization 
 augmentation part       36.0000000 magnetization 

 DIPCOR: dipole corrections for dipol
 direction  3 min pos     1,
 dipolmoment           0.000000      0.000000      0.000002 electrons x Angstroem
 Tr[quadrupol]      -124.238999

 energy correction for charged system         0.000000 eV
 dipol+quadrupol energy correction           -0.000000 eV
 added-field ion interaction          0.000000 eV  (added to PSCEN)


 Free energy of the ion-electron system (eV)
  ---------------------------------------------------
  alpha Z        PSCENC =        26.15658944
  Ewald energy   TEWEN  =      4191.05914181
  -Hartree energ DENC   =     -5512.13060162
  -exchange      EXHF   =         0.00000000
  -V(xc)+E(xc)   XCENC  =      -153.05699360
  PAW double counting   =      1381.62273368    -1155.94054365
  entropy T*S    EENTRO =        -0.00006490
  eigenvalues    EBANDS =      -219.57107880
  atomic energy  EATOM  =      1435.22174307
  Solvation  Ediel_sol  =         0.00000000
  ---------------------------------------------------
  free energy    TOTEN  =        -6.63907459 eV

  energy without entropy =       -6.63900968  energy(sigma->0) =       -6.63904213


--------------------------------------------------------------------------------------------------------




--------------------------------------- Iteration      1(   3)  ---------------------------------------


     EDDAV:  cpu time    1.2855: real time    1.2858
       DOS:  cpu time    0.0011: real time    0.0011
    --------------------------------------------
      LOOP:  cpu time    1.2866: real time    1.2869

 eigenvalue-minimisations  :  6632
 total energy-change (2. order) :-0.3410970E+02  (-0.3384154E+02)
 number of electron      36.0000000 magnetization 
 augmentation part       36.0000000 magnetization 

 DIPCOR: dipole corrections for dipol
 direction  3 min pos     1,
 dipolmoment           0.000000      0.000000      0.000002 electrons x Angstroem
 Tr[quadrupol]      -124.238999

 energy correction for charged system         0.000000 eV
 dipol+quadrupol energy correction           -0.000000 eV
 added-field ion interaction          0.000000 eV  (added to PSCEN)


 Free energy of the ion-electron system (eV)
  ---------------------------------------------------
  alpha Z        PSCENC =        26.15658944
  Ewald energy   TEWEN  =      4191.05914181
  -Hartree energ DENC   =     -5512.13060162
  -exchange      EXHF   =         0.00000000
  -V(xc)+E(xc)   XCENC  =      -153.05699360
  PAW double counting   =      1381.62273368    -1155.94054365
  entropy T*S    EENTRO =        -0.00000000
  eigenvalues    EBANDS =      -253.68084826
  atomic energy  EATOM  =      1435.22174307
  Solvation  Ediel_sol  =         0.00000000
  ---------------------------------------------------
  free energy    TOTEN  =       -40.74877914 eV

  energy without entropy =      -40.74877914  energy(sigma->0) =      -40.74877914


--------------------------------------------------------------------------------------------------------




--------------------------------------- Iteration      1(   4)  ---------------------------------------


     EDDAV:  cpu time    1.3355: real time    1.3361
       DOS:  cpu time    0.0011: real time    0.0011
    --------------------------------------------
      LOOP:  cpu time    1.3365: real time    1.3372

 eigenvalue-minimisations  :  7200
 total energy-change (2. order) :-0.1128465E+01  (-0.1123733E+01)
 number of electron      36.0000000 magnetization 
 augmentation part       36.0000000 magnetization 

 DIPCOR: dipole corrections for dipol
 direction  3 min pos     1,
 dipolmoment           0.000000      0.000000      0.000002 electrons x Angstroem
 Tr[quadrupol]      -124.238999

 energy correction for charged system         0.000000 eV
 dipol+quadrupol energy correction           -0.000000 eV
 added-field ion interaction          0.000000 eV  (added to PSCEN)


 Free energy of the ion-electron system (eV)
  ---------------------------------------------------
  alpha Z        PSCENC =        26.15658944
  Ewald energy   TEWEN  =      4191.05914181
  -Hartree energ DENC   =     -5512.13060162
  -exchange      EXHF   =         0.00000000
  -V(xc)+E(xc)   XCENC  =      -153.05699360
  PAW double counting   =      1381.62273368    -1155.94054365
  entropy T*S    EENTRO =        -0.00000000
  eigenvalues    EBANDS =      -254.80931313
  atomic energy  EATOM  =      1435.22174307
  Solvation  Ediel_sol  =         0.00000000
  ---------------------------------------------------
  free energy    TOTEN  =       -41.87724401 eV

  energy without entropy =      -41.87724401  energy(sigma->0) =      -41.87724401


--------------------------------------------------------------------------------------------------------




--------------------------------------- Iteration      1(   5)  ---------------------------------------


     EDDAV:  cpu time    1.3623: real time    1.3627
       DOS:  cpu time    0.0011: real time    0.0011
    CHARGE:  cpu time    0.0432: real time    0.0432
    MIXING:  cpu time    0.0006: real time    0.0006
    --------------------------------------------
      LOOP:  cpu time    1.4071: real time    1.4075

 eigenvalue-minimisations  :  7608
 total energy-change (2. order) :-0.3836117E-01  (-0.3834434E-01)
 number of electron      36.0000000 magnetization 
 augmentation part       -2.3365650 magnetization 

 DIPCOR: dipole corrections for dipol
 direction  3 min pos     1,
 dipolmoment           0.000000      0.000000      0.000002 electrons x Angstroem
 Tr[quadrupol]      -124.238999

 energy correction for charged system         0.000000 eV
 dipol+quadrupol energy correction           -0.000000 eV
 added-field ion interaction          0.000000 eV  (added to PSCEN)


 Broyden mixing:
  rms(total) = 0.27075E+01    rms(broyden)= 0.27075E+01
  rms(prec ) = 0.27478E+01
  weight for this iteration     100.00

 Free energy of the ion-electron system (eV)
  ---------------------------------------------------
  alpha Z        PSCENC =        26.15658944
  Ewald energy   TEWEN  =      4191.05914181
  -Hartree energ DENC   =     -5512.13060162
  -exchange      EXHF   =         0.00000000
  -V(xc)+E(xc)   XCENC  =      -153.05699360
  PAW double counting   =      1381.62273368    -1155.94054365
  entropy T*S    EENTRO =        -0.00000000
  eigenvalues    EBANDS =      -254.84767430
  atomic energy  EATOM  =      1435.22174307
  Solvation  Ediel_sol  =         0.00000000
  ---------------------------------------------------
  free energy    TOTEN  =       -41.91560518 eV

  energy without entropy =      -41.91560518  energy(sigma->0) =      -41.91560518


--------------------------------------------------------------------------------------------------------




--------------------------------------- Iteration      1(   6)  ---------------------------------------


    POTLOK:  cpu time    0.0122: real time    0.0122
    SETDIJ:  cpu time    0.0020: real time    0.0020
     EDDAV:  cpu time    1.3137: real time    1.3143
       DOS:  cpu time    0.0015: real time    0.0015
    CHARGE:  cpu time    0.0430: real time    0.0431
    MIXING:  cpu time    0.0004: real time    0.0004
    --------------------------------------------
      LOOP:  cpu time    1.3727: real time    1.3734

 eigenvalue-minimisations  :  7168
 total energy-change (2. order) : 0.1943914E+01  (-0.1185813E+01)
 number of electron      36.0000000 magnetization 
 augmentation part       -1.4167824 magnetization 

 DIPCOR: dipole corrections for dipol
 direction  3 min pos     1,
 dipolmoment           0.000000      0.000000      0.189092 electrons x Angstroem
 Tr[quadrupol]      -124.282611

 energy correction for charged system         0.000000 eV
 dipol+quadrupol energy correction           -0.008168 eV
 added-field ion interaction          0.000001 eV  (added to PSCEN)


 Broyden mixing:
  rms(total) = 0.11737E+01    rms(broyden)= 0.11737E+01
  rms(prec ) = 0.12064E+01
  weight for this iteration     100.00

 eigenvalues of (default mixing * dielectric matrix)
  average eigenvalue GAMMA=   1.2162
  1.2162

 Free energy of the ion-electron system (eV)
  ---------------------------------------------------
  alpha Z        PSCENC =        26.14842298
  Ewald energy   TEWEN  =      4191.05914181
  -Hartree energ DENC   =     -5511.69026598
  -exchange      EXHF   =         0.00000000
  -V(xc)+E(xc)   XCENC  =      -151.79191525
  PAW double counting   =      1938.66321028    -1714.48347160
  entropy T*S    EENTRO =        -0.00000016
  eigenvalues    EBANDS =      -253.09855602
  atomic energy  EATOM  =      1435.22174307
  Solvation  Ediel_sol  =         0.00000000
  ---------------------------------------------------
  free energy    TOTEN  =       -39.97169087 eV

  energy without entropy =      -39.97169071  energy(sigma->0) =      -39.97169079


--------------------------------------------------------------------------------------------------------




--------------------------------------- Iteration      1(   7)  ---------------------------------------


    POTLOK:  cpu time    0.0121: real time    0.0121
    SETDIJ:  cpu time    0.0021: real time    0.0021
     EDDAV:  cpu time    1.3027: real time    1.3033
       DOS:  cpu time    0.0012: real time    0.0012
    CHARGE:  cpu time    0.0428: real time    0.0428
    MIXING:  cpu time    0.0004: real time    0.0004
    --------------------------------------------
      LOOP:  cpu time    1.3613: real time    1.3619

 eigenvalue-minimisations  :  6888
 total energy-change (2. order) : 0.1882698E+00  (-0.6763566E+00)
 number of electron      36.0000000 magnetization 
 augmentation part       -2.0171233 magnetization 

 DIPCOR: dipole corrections for dipol
 direction  3 min pos     1,
 dipolmoment           0.000000      0.000000      0.184937 electrons x Angstroem
 Tr[quadrupol]      -125.049898

 energy correction for charged system         0.000000 eV
 dipol+quadrupol energy correction           -0.007813 eV
 added-field ion interaction          0.000001 eV  (added to PSCEN)


 Broyden mixing:
  rms(total) = 0.72538E+00    rms(broyden)= 0.72538E+00
  rms(prec ) = 0.75824E+00
  weight for this iteration     100.00

 eigenvalues of (default mixing * dielectric matrix)
  average eigenvalue GAMMA=   1.2065
  1.7988  0.6142

 Free energy of the ion-electron system (eV)
  ---------------------------------------------------
  alpha Z        PSCENC =        26.14877792
  Ewald energy   TEWEN  =      4191.05914181
  -Hartree energ DENC   =     -5526.95616442
  -exchange      EXHF   =         0.00000000
  -V(xc)+E(xc)   XCENC  =      -151.96115575
  PAW double counting   =      2483.34353246    -2259.77681694
  entropy T*S    EENTRO =        -0.00000000
  eigenvalues    EBANDS =      -236.86247925
  atomic energy  EATOM  =      1435.22174307
  Solvation  Ediel_sol  =         0.00000000
  ---------------------------------------------------
  free energy    TOTEN  =       -39.78342110 eV

  energy without entropy =      -39.78342110  energy(sigma->0) =      -39.78342110


--------------------------------------------------------------------------------------------------------




--------------------------------------- Iteration      1(   8)  ---------------------------------------


    POTLOK:  cpu time    0.0122: real time    0.0122
    SETDIJ:  cpu time    0.0020: real time    0.0020
     EDDAV:  cpu time    1.2828: real time    1.2831
       DOS:  cpu time    0.0011: real time    0.0011
    CHARGE:  cpu time    0.0429: real time    0.0429
    MIXING:  cpu time    0.0004: real time    0.0004
    --------------------------------------------
      LOOP:  cpu time    1.3413: real time    1.3417

 eigenvalue-minimisations  :  6872
 total energy-change (2. order) : 0.3419818E+00  (-0.1521509E+00)
 number of electron      36.0000000 magnetization 
 augmentation part       -1.7195852 magnetization 

 DIPCOR: dipole corrections for dipol
 direction  3 min pos     1,
 dipolmoment           0.000000      0.000000      0.136421 electrons x Angstroem
 Tr[quadrupol]      -125.017768

 energy correction for charged system         0.000000 eV
 dipol+quadrupol energy correction           -0.004251 eV
 added-field ion interaction          0.000001 eV  (added to PSCEN)


 Broyden mixing:
  rms(total) = 0.26492E+00    rms(broyden)= 0.26492E+00
  rms(prec ) = 0.27080E+00
  weight for this iteration     100.00

 eigenvalues of (default mixing * dielectric matrix)
  average eigenvalue GAMMA=   1.1002
  2.0533  0.6574  0.5900

 Free energy of the ion-electron system (eV)
  ---------------------------------------------------
  alpha Z        PSCENC =        26.15233907
  Ewald energy   TEWEN  =      4191.05914181
  -Hartree energ DENC   =     -5524.75654314
  -exchange      EXHF   =         0.00000000
  -V(xc)+E(xc)   XCENC  =      -151.48767062
  PAW double counting   =      2831.80341904    -2608.79077964
  entropy T*S    EENTRO =        -0.00000000
  eigenvalues    EBANDS =      -238.64308892
  atomic energy  EATOM  =      1435.22174307
  Solvation  Ediel_sol  =         0.00000000
  ---------------------------------------------------
  free energy    TOTEN  =       -39.44143934 eV

  energy without entropy =      -39.44143934  energy(sigma->0) =      -39.44143934


--------------------------------------------------------------------------------------------------------




--------------------------------------- Iteration      1(   9)  ---------------------------------------


    POTLOK:  cpu time    0.0121: real time    0.0121
    SETDIJ:  cpu time    0.0020: real time    0.0020
     EDDAV:  cpu time    1.2672: real time    1.2676
       DOS:  cpu time    0.0010: real time    0.0010
    CHARGE:  cpu time    0.0429: real time    0.0429
    MIXING:  cpu time    0.0004: real time    0.0004
    --------------------------------------------
      LOOP:  cpu time    1.3256: real time    1.3260

 eigenvalue-minimisations  :  6632
 total energy-change (2. order) : 0.1522109E-01  (-0.1054069E-01)
 number of electron      36.0000000 magnetization 
 augmentation part       -1.7113398 magnetization 

 DIPCOR: dipole corrections for dipol
 direction  3 min pos     1,
 dipolmoment           0.000000      0.000000      0.164215 electrons x Angstroem
 Tr[quadrupol]      -125.125238

 energy correction for charged system         0.000000 eV
 dipol+quadrupol energy correction           -0.006160 eV
 added-field ion interaction          0.000001 eV  (added to PSCEN)


 Broyden mixing:
  rms(total) = 0.98041E-01    rms(broyden)= 0.98041E-01
  rms(prec ) = 0.10060E+00
  weight for this iteration     100.00

 eigenvalues of (default mixing * dielectric matrix)
  average eigenvalue GAMMA=   1.1538
  2.0165  0.9966  0.9966  0.6054

 Free energy of the ion-electron system (eV)
  ---------------------------------------------------
  alpha Z        PSCENC =        26.15043049
  Ewald energy   TEWEN  =      4191.05914181
  -Hartree energ DENC   =     -5527.06345006
  -exchange      EXHF   =         0.00000000
  -V(xc)+E(xc)   XCENC  =      -151.37867600
  PAW double counting   =      2958.21573189    -2735.37812707
  entropy T*S    EENTRO =        -0.00000000
  eigenvalues    EBANDS =      -236.25301237
  atomic energy  EATOM  =      1435.22174307
  Solvation  Ediel_sol  =         0.00000000
  ---------------------------------------------------
  free energy    TOTEN  =       -39.42621825 eV

  energy without entropy =      -39.42621825  energy(sigma->0) =      -39.42621825


--------------------------------------------------------------------------------------------------------




--------------------------------------- Iteration      1(  10)  ---------------------------------------


    POTLOK:  cpu time    0.0122: real time    0.0122
    SETDIJ:  cpu time    0.0020: real time    0.0020
     EDDAV:  cpu time    1.3498: real time    1.3502
       DOS:  cpu time    0.0011: real time    0.0011
    CHARGE:  cpu time    0.0425: real time    0.0425
    MIXING:  cpu time    0.0004: real time    0.0004
    --------------------------------------------
      LOOP:  cpu time    1.4081: real time    1.4084

 eigenvalue-minimisations  :  7408
 total energy-change (2. order) : 0.2646017E-02  (-0.2200952E-02)
 number of electron      36.0000000 magnetization 
 augmentation part       -1.7315316 magnetization 

 DIPCOR: dipole corrections for dipol
 direction  3 min pos     1,
 dipolmoment           0.000000      0.000000      0.167672 electrons x Angstroem
 Tr[quadrupol]      -125.204297

 energy correction for charged system         0.000000 eV
 dipol+quadrupol energy correction           -0.006422 eV
 added-field ion interaction          0.000001 eV  (added to PSCEN)


 Broyden mixing:
  rms(total) = 0.83106E-01    rms(broyden)= 0.83106E-01
  rms(prec ) = 0.84180E-01
  weight for this iteration     100.00

 eigenvalues of (default mixing * dielectric matrix)
  average eigenvalue GAMMA=   1.3267
  2.1749  2.1749  1.0419  0.6210  0.6210

 Free energy of the ion-electron system (eV)
  ---------------------------------------------------
  alpha Z        PSCENC =        26.15016845
  Ewald energy   TEWEN  =      4191.05914181
  -Hartree energ DENC   =     -5528.93374082
  -exchange      EXHF   =         0.00000000
  -V(xc)+E(xc)   XCENC  =      -151.33677957
  PAW double counting   =      2980.19350859    -2757.41511439
  entropy T*S    EENTRO =        -0.00000000
  eigenvalues    EBANDS =      -234.36249936
  atomic energy  EATOM  =      1435.22174307
  Solvation  Ediel_sol  =         0.00000000
  ---------------------------------------------------
  free energy    TOTEN  =       -39.42357223 eV

  energy without entropy =      -39.42357223  energy(sigma->0) =      -39.42357223


--------------------------------------------------------------------------------------------------------




--------------------------------------- Iteration      1(  11)  ---------------------------------------


    POTLOK:  cpu time    0.0121: real time    0.0121
    SETDIJ:  cpu time    0.0019: real time    0.0019
     EDDAV:  cpu time    1.3633: real time    1.3638
       DOS:  cpu time    0.0012: real time    0.0012
    CHARGE:  cpu time    0.0427: real time    0.0427
    MIXING:  cpu time    0.0005: real time    0.0005
    --------------------------------------------
      LOOP:  cpu time    1.4218: real time    1.4223

 eigenvalue-minimisations  :  7432
 total energy-change (2. order) : 0.1334151E-02  (-0.3939220E-03)
 number of electron      36.0000000 magnetization 
 augmentation part       -1.7249103 magnetization 

 DIPCOR: dipole corrections for dipol
 direction  3 min pos     1,
 dipolmoment           0.000000      0.000000      0.159712 electrons x Angstroem
 Tr[quadrupol]      -125.274763

 energy correction for charged system         0.000000 eV
 dipol+quadrupol energy correction           -0.005827 eV
 added-field ion interaction          0.000001 eV  (added to PSCEN)


 Broyden mixing:
  rms(total) = 0.47944E-01    rms(broyden)= 0.47944E-01
  rms(prec ) = 0.49525E-01
  weight for this iteration     100.00

 eigenvalues of (default mixing * dielectric matrix)
  average eigenvalue GAMMA=   1.3099
  2.3618  2.3618  1.0449  0.6124  0.7393  0.7393

 Free energy of the ion-electron system (eV)
  ---------------------------------------------------
  alpha Z        PSCENC =        26.15076371
  Ewald energy   TEWEN  =      4191.05914181
  -Hartree energ DENC   =     -5530.42677791
  -exchange      EXHF   =         0.00000000
  -V(xc)+E(xc)   XCENC  =      -151.29599067
  PAW double counting   =      2998.10705347    -2775.37342955
  entropy T*S    EENTRO =        -0.00000000
  eigenvalues    EBANDS =      -232.86474200
  atomic energy  EATOM  =      1435.22174307
  Solvation  Ediel_sol  =         0.00000000
  ---------------------------------------------------
  free energy    TOTEN  =       -39.42223808 eV

  energy without entropy =      -39.42223808  energy(sigma->0) =      -39.42223808


--------------------------------------------------------------------------------------------------------




--------------------------------------- Iteration      1(  12)  ---------------------------------------


    POTLOK:  cpu time    0.0122: real time    0.0122
    SETDIJ:  cpu time    0.0020: real time    0.0020
     EDDAV:  cpu time    1.3238: real time    1.3242
       DOS:  cpu time    0.0010: real time    0.0010
    CHARGE:  cpu time    0.0428: real time    0.0428
    MIXING:  cpu time    0.0004: real time    0.0004
    --------------------------------------------
      LOOP:  cpu time    1.3823: real time    1.3828

 eigenvalue-minimisations  :  7168
 total energy-change (2. order) : 0.7897978E-03  (-0.4315059E-03)
 number of electron      36.0000000 magnetization 
 augmentation part       -1.7286696 magnetization 

 DIPCOR: dipole corrections for dipol
 direction  3 min pos     1,
 dipolmoment           0.000000      0.000000      0.164517 electrons x Angstroem
 Tr[quadrupol]      -125.339224

 energy correction for charged system         0.000000 eV
 dipol+quadrupol energy correction           -0.006183 eV
 added-field ion interaction          0.000001 eV  (added to PSCEN)


 Broyden mixing:
  rms(total) = 0.16252E-01    rms(broyden)= 0.16252E-01
  rms(prec ) = 0.18402E-01
  weight for this iteration     100.00

 eigenvalues of (default mixing * dielectric matrix)
  average eigenvalue GAMMA=   1.2172
  2.3301  2.3301  1.0764  0.8333  0.8333  0.5585  0.5585

 Free energy of the ion-electron system (eV)
  ---------------------------------------------------
  alpha Z        PSCENC =        26.15040784
  Ewald energy   TEWEN  =      4191.05914181
  -Hartree energ DENC   =     -5531.87051067
  -exchange      EXHF   =         0.00000000
  -V(xc)+E(xc)   XCENC  =      -151.27396684
  PAW double counting   =      2997.33108451    -2774.60958941
  entropy T*S    EENTRO =        -0.00000000
  eigenvalues    EBANDS =      -231.42975858
  atomic energy  EATOM  =      1435.22174307
  Solvation  Ediel_sol  =         0.00000000
  ---------------------------------------------------
  free energy    TOTEN  =       -39.42144828 eV

  energy without entropy =      -39.42144828  energy(sigma->0) =      -39.42144828


--------------------------------------------------------------------------------------------------------




--------------------------------------- Iteration      1(  13)  ---------------------------------------


    POTLOK:  cpu time    0.0120: real time    0.0120
    SETDIJ:  cpu time    0.0020: real time    0.0020
     EDDAV:  cpu time    1.3312: real time    1.3315
       DOS:  cpu time    0.0011: real time    0.0011
    CHARGE:  cpu time    0.0430: real time    0.0430
    MIXING:  cpu time    0.0004: real time    0.0004
    --------------------------------------------
      LOOP:  cpu time    1.3899: real time    1.3902

 eigenvalue-minimisations  :  7256
 total energy-change (2. order) : 0.1735692E-03  (-0.2423722E-03)
 number of electron      36.0000000 magnetization 
 augmentation part       -1.7245248 magnetization 

 DIPCOR: dipole corrections for dipol
 direction  3 min pos     1,
 dipolmoment           0.000000      0.000000      0.164278 electrons x Angstroem
 Tr[quadrupol]      -125.357287

 energy correction for charged system         0.000000 eV
 dipol+quadrupol energy correction           -0.006165 eV
 added-field ion interaction          0.000001 eV  (added to PSCEN)


 Broyden mixing:
  rms(total) = 0.12303E-01    rms(broyden)= 0.12303E-01
  rms(prec ) = 0.14122E-01
  weight for this iteration     100.00

 eigenvalues of (default mixing * dielectric matrix)
  average eigenvalue GAMMA=   1.2170
  2.3467  2.3467  1.5469  1.1040  0.7254  0.6568  0.6568  0.3531

 Free energy of the ion-electron system (eV)
  ---------------------------------------------------
  alpha Z        PSCENC =        26.15042580
  Ewald energy   TEWEN  =      4191.05914181
  -Hartree energ DENC   =     -5532.23388791
  -exchange      EXHF   =         0.00000000
  -V(xc)+E(xc)   XCENC  =      -151.26555702
  PAW double counting   =      2997.49397931    -2774.77306516
  entropy T*S    EENTRO =        -0.00000000
  eigenvalues    EBANDS =      -231.07405461
  atomic energy  EATOM  =      1435.22174307
  Solvation  Ediel_sol  =         0.00000000
  ---------------------------------------------------
  free energy    TOTEN  =       -39.42127471 eV

  energy without entropy =      -39.42127471  energy(sigma->0) =      -39.42127471


--------------------------------------------------------------------------------------------------------




--------------------------------------- Iteration      1(  14)  ---------------------------------------


    POTLOK:  cpu time    0.0120: real time    0.0120
    SETDIJ:  cpu time    0.0019: real time    0.0019
     EDDAV:  cpu time    1.3045: real time    1.3048
       DOS:  cpu time    0.0011: real time    0.0011
    CHARGE:  cpu time    0.0472: real time    0.0474
[...]
     24       1.7029      0.00000

 k-point    96 :       0.4737    0.4545    0.0000
  band No.  band energies     occupation 
      1     -13.7181      2.00000
      2     -13.7037      2.00000
      3     -12.2719      2.00000
      4     -12.2297      2.00000
      5      -7.4534      2.00000
      6      -7.4169      2.00000
      7      -6.2663      2.00000
      8      -6.2516      2.00000
      9      -5.2394      2.00000
     10      -5.2389      2.00000
     11      -4.4987      2.00000
     12      -4.4804      2.00000
     13      -3.4858      2.00000
     14      -3.4815      2.00000
     15      -2.4091      2.00000
     16      -2.2580      2.00000
     17      -2.0780      2.00000
     18      -1.9762      2.00000
     19       0.1050      0.00000
     20       0.1237      0.00000
     21       0.2539      0.00000
     22       0.3069      0.00000
     23       1.6746      0.00000
     24       1.6800      0.00000

 k-point    97 :      -0.4737    0.4545    0.0000
  band No.  band energies     occupation 
      1     -13.7181      2.00000
      2     -13.7037      2.00000
      3     -12.2719      2.00000
      4     -12.2297      2.00000
      5      -7.4534      2.00000
      6      -7.4169      2.00000
      7      -6.2663      2.00000
      8      -6.2516      2.00000
      9      -5.2394      2.00000
     10      -5.2389      2.00000
     11      -4.4987      2.00000
     12      -4.4804      2.00000
     13      -3.4858      2.00000
     14      -3.4815      2.00000
     15      -2.4091      2.00000
     16      -2.2580      2.00000
     17      -2.0780      2.00000
     18      -1.9762      2.00000
     19       0.1050      0.00000
     20       0.1237      0.00000
     21       0.2539      0.00000
     22       0.3069      0.00000
     23       1.6746      0.00000
     24       1.6800      0.00000

 k-point    98 :      -0.4211    0.4545    0.0000
  band No.  band energies     occupation 
      1     -13.7663      2.00000
      2     -13.7231      2.00000
      3     -12.4126      2.00000
      4     -12.2949      2.00000
      5      -7.3005      2.00000
      6      -7.2022      2.00000
      7      -6.2185      2.00000
      8      -6.1728      2.00000
      9      -5.2345      2.00000
     10      -5.2314      2.00000
     11      -4.5104      2.00000
     12      -4.4502      2.00000
     13      -3.4828      2.00000
     14      -3.4643      2.00000
     15      -2.6593      2.00000
     16      -2.3469      2.00000
     17      -2.1103      2.00000
     18      -1.9429      2.00000
     19       0.0802      0.00000
     20       0.1264      0.00000
     21       0.1858      0.00000
     22       0.3045      0.00000
     23       1.6875      0.00000
     24       1.7029      0.00000

 k-point    99 :      -0.3684    0.4545    0.0000
  band No.  band energies     occupation 
      1     -13.8448      2.00000
      2     -13.7734      2.00000
      3     -12.6157      2.00000
      4     -12.4428      2.00000
      5      -7.0017      2.00000
      6      -6.8706      2.00000
      7      -6.1045      2.00000
      8      -6.0209      2.00000
      9      -5.2351      2.00000
     10      -5.2191      2.00000
     11      -4.5368      2.00000
     12      -4.4280      2.00000
     13      -3.4472      2.00000
     14      -3.4086      2.00000
     15      -2.9458      2.00000
     16      -2.5788      2.00000
     17      -2.1042      2.00000
     18      -1.9705      2.00000
     19       0.0130      0.00000
     20       0.0170      0.00000
     21       0.2258      0.00000
     22       0.2884      0.00000
     23       1.5823      0.00000
     24       1.6224      0.00000

 k-point   100 :      -0.3158    0.4545    0.0000
  band No.  band energies     occupation 
      1     -13.9474      2.00000
      2     -13.8483      2.00000
      3     -12.8400      2.00000
      4     -12.6332      2.00000
      5      -6.6469      2.00000
      6      -6.5220      2.00000
      7      -5.9126      2.00000
      8      -5.7831      2.00000
      9      -5.2403      2.00000
     10      -5.2157      2.00000
     11      -4.5795      2.00000
     12      -4.4322      2.00000
     13      -3.3528      2.00000
     14      -3.3316      2.00000
     15      -3.1821      2.00000
     16      -2.8161      2.00000
     17      -2.1001      2.00000
     18      -2.0153      2.00000
     19      -0.1121      0.00000
     20      -0.1116      0.00000
     21       0.2917      0.00000
     22       0.3017      0.00000
     23       1.3694      0.00000
     24       1.4393      0.00000

 k-point   101 :      -0.2632    0.4545    0.0000
  band No.  band energies     occupation 
      1     -14.0653      2.00000
      2     -13.9394      2.00000
      3     -13.0540      2.00000
      4     -12.8298      2.00000
      5      -6.3491      2.00000
      6      -6.2568      2.00000
      7      -5.6468      2.00000
      8      -5.5404      2.00000
      9      -5.2285      2.00000
     10      -5.1588      2.00000
     11      -4.5994      2.00000
     12      -4.4466      2.00000
     13      -3.4382      2.00000
     14      -3.2198      2.00000
     15      -3.1357      2.00000
     16      -3.0090      2.00000
     17      -2.0612      2.00000
     18      -2.0340      2.00000
     19      -0.2414      0.00000
     20      -0.2160      0.00000
     21       0.3262      0.00000
     22       0.3551      0.00000
     23       1.1634      0.00000
     24       1.2059      0.00000

 k-point   102 :      -0.2105    0.4545    0.0000
  band No.  band energies     occupation 
      1     -14.1868      2.00000
      2     -14.0364      2.00000
      3     -13.2386      2.00000
      4     -13.0079      2.00000
      5      -6.1712      2.00000
      6      -6.1215      2.00000
      7      -5.4705      2.00000
      8      -5.4627      2.00000
      9      -5.1561      2.00000
     10      -4.8505      2.00000
     11      -4.5703      2.00000
     12      -4.4395      2.00000
     13      -3.4738      2.00000
     14      -3.1664      2.00000
     15      -3.0547      2.00000
     16      -3.0533      2.00000
     17      -2.0081      2.00000
     18      -1.9791      2.00000
     19      -0.3191      0.00000
     20      -0.2567      0.00000
     21       0.3470      0.00000
     22       0.4146      0.00000
     23       0.9999      0.00000
     24       1.0148      0.00000

 k-point   103 :      -0.1579    0.4545    0.0000
  band No.  band energies     occupation 
      1     -14.2990      2.00000
      2     -14.1276      2.00000
      3     -13.3844      2.00000
      4     -13.1533      2.00000
      5      -6.1182      2.00000
      6      -6.1122      2.00000
      7      -5.4602      2.00000
      8      -5.4184      2.00000
      9      -4.9537      2.00000
     10      -4.5467      2.00000
     11      -4.5140      2.00000
     12      -4.3885      2.00000
     13      -3.3226      2.00000
     14      -3.1912      2.00000
     15      -3.0485      2.00000
     16      -2.9625      2.00000
     17      -1.9739      2.00000
     18      -1.8990      2.00000
     19      -0.3084      0.00000
     20      -0.2097      0.00000
     21       0.3727      0.00000
     22       0.4877      0.00000
     23       0.8830      0.00000
     24       0.9674      0.00000

 k-point   104 :      -0.1053    0.4545    0.0000
  band No.  band energies     occupation 
      1     -14.3894      2.00000
      2     -14.2022      2.00000
      3     -13.4887      2.00000
      4     -13.2593      2.00000
      5      -6.1827      2.00000
      6      -6.1348      2.00000
      7      -5.4682      2.00000
      8      -5.3523      2.00000
      9      -4.8324      2.00000
     10      -4.4040      2.00000
     11      -4.4026      2.00000
     12      -4.2636      2.00000
     13      -3.1745      2.00000
     14      -3.1606      2.00000
     15      -3.0077      2.00000
     16      -2.8619      2.00000
     17      -1.9991      2.00000
     18      -1.8834      2.00000
     19      -0.2275      0.00000
     20      -0.1069      0.00000
     21       0.4267      0.00000
     22       0.5918      0.00000
     23       0.8966      0.00000
     24       1.0374      0.00000

 k-point   105 :      -0.0526    0.4545    0.0000
  band No.  band energies     occupation 
      1     -14.4478      2.00000
      2     -14.2509      2.00000
      3     -13.5510      2.00000
      4     -13.3234      2.00000
      5      -6.2441      2.00000
      6      -6.1770      2.00000
      7      -5.4667      2.00000
      8      -5.3072      2.00000
      9      -4.8067      2.00000
     10      -4.3586      2.00000
     11      -4.2436      2.00000
     12      -4.1407      2.00000
     13      -3.2576      2.00000
     14      -3.1780      2.00000
     15      -2.7438      2.00000
     16      -2.7395      2.00000
     17      -2.1009      2.00000
     18      -1.9303      2.00000
     19      -0.1516      0.00000
     20      -0.0279      0.00000
     21       0.5079      0.00000
     22       0.7049      0.00000
     23       0.9983      0.00000
     24       1.1641      0.00000


--------------------------------------------------------------------------------------------------------


 soft charge-density along one line, spin component           1
         0         1         2         3         4         5         6         7         8         9
 total charge-density along one line
 
 pseudopotential strength for first ion, spin component:           1
 -9.498   0.000  -0.000  -0.002   0.000  -9.688   0.000  -0.000
  0.000  -9.506  -0.000   0.000  -0.002   0.000  -9.696  -0.000
 -0.000  -0.000  -9.495   0.000   0.000  -0.000  -0.000  -9.686
 -0.002   0.000   0.000  -9.506   0.000  -0.002   0.000   0.000
  0.000  -0.002   0.000   0.000  -9.498   0.000  -0.002   0.000
 -9.688   0.000  -0.000  -0.002   0.000  -9.869   0.000  -0.000
  0.000  -9.696  -0.000   0.000  -0.002   0.000  -9.877  -0.000
 -0.000  -0.000  -9.686   0.000   0.000  -0.000  -0.000  -9.866
 -0.002   0.000   0.000  -9.697   0.000  -0.002   0.000   0.000
  0.000  -0.002   0.000   0.000  -9.688   0.000  -0.002   0.000
 -0.000  -0.000   0.001  -0.000   0.000  -0.000  -0.000   0.001
 -0.000  -0.000   0.001  -0.000   0.000  -0.000  -0.000   0.001
  0.000  -0.029   0.000   0.000   0.007   0.000  -0.029   0.000
  0.000  -0.000  -0.030   0.000  -0.000   0.000  -0.000  -0.030
  0.007   0.000  -0.000  -0.029   0.000   0.007   0.000  -0.000
  0.000  -0.035   0.000   0.000   0.008   0.000  -0.036   0.000
  0.000  -0.000  -0.037   0.000  -0.000   0.000  -0.000  -0.038
  0.008   0.000  -0.000  -0.035   0.000   0.008   0.000  -0.000
 total augmentation occupancy for first ion, spin component:           1
  2.102  -0.000  -0.000   0.433  -0.000  -2.485   0.000   0.000  -0.616   0.000  -0.000   0.000   0.000  -0.000  -0.321  -0.000
 -0.000   3.194   0.000  -0.000   0.435   0.000  -4.157  -0.001   0.000  -0.619   0.001  -0.000  -0.148   0.002  -0.000   0.029
 -0.000   0.000   1.547   0.000   0.001   0.000  -0.001  -1.743  -0.000  -0.001  -0.105   0.017   0.000   0.166   0.000  -0.000
  0.433  -0.000   0.000   3.192   0.000  -0.616   0.000  -0.000  -4.156  -0.000  -0.000   0.000  -0.000   0.000  -0.148   0.000
 -0.000   0.435   0.001   0.000   2.108   0.000  -0.619  -0.001  -0.000  -2.488   0.000  -0.000  -0.324   0.000  -0.000   0.048
 -2.485   0.000   0.000  -0.616   0.000   3.780  -0.000  -0.000   0.766  -0.000  -0.000  -0.000  -0.000   0.000   0.390   0.000
  0.000  -4.157  -0.001   0.000  -0.619  -0.000   5.980   0.000  -0.000   0.771  -0.001   0.000   0.167  -0.003   0.000  -0.039
  0.000  -0.001  -1.743  -0.000  -0.001  -0.000   0.000   2.876   0.000   0.001   0.232  -0.019  -0.000  -0.138  -0.000   0.000
 -0.616   0.000  -0.000  -4.156  -0.000   0.766  -0.000   0.000   5.979   0.000   0.000  -0.000   0.000  -0.000   0.167  -0.000
  0.000  -0.619  -0.001  -0.000  -2.488  -0.000   0.771   0.001   0.000   3.783  -0.001   0.000   0.393   0.000  -0.000  -0.054
 -0.000   0.001  -0.105  -0.000   0.000  -0.000  -0.001   0.232   0.000  -0.001   1.554  -0.100  -0.001   0.045  -0.000   0.000
  0.000  -0.000   0.017   0.000  -0.000  -0.000   0.000  -0.019  -0.000   0.000  -0.100   0.008   0.000  -0.001   0.000  -0.000
  0.000  -0.148   0.000  -0.000  -0.324  -0.000   0.167  -0.000   0.000   0.393  -0.001   0.000   0.289  -0.000  -0.000  -0.036
 -0.000   0.002   0.166   0.000   0.000   0.000  -0.003  -0.138  -0.000   0.000   0.045  -0.001  -0.000   0.356   0.000   0.000
 -0.321  -0.000   0.000  -0.148  -0.000   0.390   0.000  -0.000   0.167  -0.000  -0.000   0.000  -0.000   0.000   0.289   0.000
 -0.000   0.029  -0.000   0.000   0.048   0.000  -0.039   0.000  -0.000  -0.054   0.000  -0.000  -0.036   0.000   0.000   0.005
  0.000  -0.000  -0.018  -0.000  -0.000  -0.000   0.000   0.007   0.000  -0.000  -0.010   0.000   0.000  -0.043   0.000  -0.000
  0.048   0.000  -0.000   0.029   0.000  -0.053  -0.000  -0.000  -0.039   0.000   0.000  -0.000   0.000  -0.000  -0.036  -0.000


------------------------ aborting loop because EDIFF is reached ----------------------------------------


    CHARGE:  cpu time    0.0457: real time    0.0457
    FORLOC:  cpu time    0.0003: real time    0.0003
    FORNL :  cpu time    0.0639: real time    0.0642
    STRESS:  cpu time    0.3239: real time    0.3239
    FORCOR:  cpu time    0.0139: real time    0.0139
    FORHAR:  cpu time    0.0024: real time    0.0024
    MIXING:  cpu time    0.0002: real time    0.0002
    OFIELD:  cpu time    0.0000: real time    0.0000

  FORCE on cell =-STRESS in cart. coord.  units (eV):
  Direction    XX          YY          ZZ          XY          YZ          ZX
  --------------------------------------------------------------------------------------
  Alpha Z    26.15659    26.15659    26.15659
  Ewald    5262.83249  5263.34360 -6338.49334     0.00000    -0.10839     0.00000
  Hartree  5471.14260  5471.32898 -5410.31280     0.00000    -0.04260     0.00000
  E(xc)    -145.43197  -145.44438  -147.23297     0.00000    -0.00080    -0.00000
  Local  -11290.22457-11290.91509 11180.35676    -0.00000     0.15575    -0.00000
  n-local   323.94435   323.90637   339.03744    -0.00000    -0.00869     0.00000
  augment   -67.63174   -67.61480   -71.25839     0.00000     0.00289    -0.00000
  Kinetic   419.29286   419.52094   421.73692    -0.00000     0.00221     0.00000
  Fock        0.00000     0.00000     0.00000     0.00000     0.00000     0.00000
  -------------------------------------------------------------------------------------
  Total       0.08062     0.28221    -0.00980     0.00000     0.00037     0.00000
  in kB       0.32610     1.14155    -0.03964     0.00000     0.00149     0.00000
  external pressure =        0.48 kB  Pullay stress =        0.00 kB


 VOLUME and BASIS-vectors are now :
 -----------------------------------------------------------------------------
  energy-cutoff  :      600.00
  volume of cell :      396.08
      direct lattice vectors                 reciprocal lattice vectors
     3.363599539  0.000000000  0.000000000     0.297300552  0.000000000  0.000000000
     0.000000000  5.814273975  0.000000000     0.000000000  0.171990519  0.000000000
     0.000000000  0.000000000 20.252588272     0.000000000  0.000000000  0.049376405

  length of vectors
     3.363599539  5.814273975 20.252588272     0.297300552  0.171990519  0.049376405


 FORCES acting on ions
    electron-ion (+dipol)            ewald-force                    non-local-force                 convergence-correction
 -----------------------------------------------------------------------------------------------
   -.225E-06 -.173E+00 -.384E+01   0.253E-06 0.172E+00 0.618E+01   0.243E-07 0.104E-02 -.234E+01   -.308E-07 -.368E-03 -.470E-03
   0.323E-06 -.173E+00 -.384E+01   -.334E-06 0.172E+00 0.618E+01   -.193E-07 0.109E-02 -.234E+01   0.292E-07 -.843E-04 -.275E-03
   -.339E-06 0.115E+00 -.467E+03   0.448E-06 -.114E+00 0.473E+03   0.348E-07 -.415E-02 -.555E+01   -.546E-07 0.256E-02 0.308E-03
   0.206E-06 0.119E+00 -.467E+03   -.116E-06 -.112E+00 0.473E+03   -.664E-07 -.359E-02 -.555E+01   -.346E-07 -.306E-02 -.129E-02
   0.182E-06 0.598E-01 0.474E+03   -.186E-06 -.612E-01 -.479E+03   -.813E-07 -.103E-02 0.458E+01   0.543E-08 0.199E-02 -.723E-03
   0.665E-07 0.599E-01 0.474E+03   -.651E-07 -.572E-01 -.479E+03   -.464E-07 -.649E-03 0.458E+01   -.228E-09 -.198E-02 0.620E-03
 -----------------------------------------------------------------------------------------------
   0.213E-06 0.814E-02 0.663E+01   -.179E-13 -.430E-15 0.568E-13   -.154E-06 -.730E-02 -.663E+01   -.856E-07 -.933E-03 -.183E-02
 
 
 POSITION                                       TOTAL-FORCE (eV/Angst)
 -----------------------------------------------------------------------------------
      1.68180      0.96957     10.26898         0.000000      0.000264      0.000947
     -0.00000      3.87670     10.26899         0.000000      0.000402      0.000351
      1.68180      4.84494     11.74314         0.000000     -0.000245     -0.000528
     -0.00000      1.93779     11.74314        -0.000000     -0.000072     -0.000437
      1.68180      4.84501      8.36675        -0.000000     -0.000460     -0.000015
     -0.00000      1.93786      8.36676        -0.000000      0.000111     -0.000318
 -----------------------------------------------------------------------------------
    total drift:                               -0.000000     -0.000099     -0.000716


--------------------------------------------------------------------------------------------------------



  FREE ENERGIE OF THE ION-ELECTRON SYSTEM (eV)
  ---------------------------------------------------
  free  energy   TOTEN  =       -39.42212602 eV

  energy  without entropy=      -39.42212602  energy(sigma->0) =      -39.42212602
 
 d Force = 0.7827436E-07[-0.176E-06, 0.333E-06]  d Energy = 0.6822120E-07 0.101E-07
 d Force = 0.3442434E-01[ 0.344E-01, 0.344E-01]  d Ewald  = 0.3442434E-01-0.446E-10


--------------------------------------------------------------------------------------------------------


    POTLOK:  cpu time    0.0140: real time    0.0140


--------------------------------------------------------------------------------------------------------


 Conjugate gradient step on ions:
 trial-energy change:   -0.000000  1 .order   -0.000000   -0.000000    0.000000
  (g-gl).g = 0.379E-06      g.g   = 0.332E-06  gl.gl    = 0.763E-05
 g(Force)  = 0.332E-06   g(Stress)= 0.000E+00 ortho     =-0.562E-07
 gamma     =   0.04958
 trial     =   1.01096
 opt step  =   0.66109  (harmonic =   0.66109) maximal distance =0.00003278
 next E    =   -39.422126   (d E  =  -0.00000)


--------------------------------------------------------------------------------------------------------


  
 reached required accuracy - stopping structural energy minimisation
     LOOP+:  cpu time    4.1929: real time    4.2508
    4ORBIT:  cpu time    0.0000: real time    0.0000

 total amount of memory used by VASP MPI-rank0    62433. kBytes
=======================================================================

   base      :      30000. kBytes
   nonl-proj :      25455. kBytes
   fftplans  :       1397. kBytes
   grid      :       2623. kBytes
   one-center:         15. kBytes
   wavefun   :       2943. kBytes
 
  
  
 General timing and accounting informations for this job:
 ========================================================
  
                  Total CPU time used (sec):       83.951
                            User time (sec):       80.877
                          System time (sec):        3.074
                         Elapsed time (sec):       84.612
  
                   Maximum memory used (kb):      174072.
                   Average memory used (kb):           0.
  
                          Minor page faults:        25007
                          Major page faults:         1026
                 Voluntary context switches:         2084
