
     Program PWSCF v.6.6 starts on 10May2023 at 17:45:21 

     This program is part of the open-source Quantum ESPRESSO suite
     for quantum simulation of materials; please cite
         "P. Giannozzi et al., J. Phys.:Condens. Matter 21 395502 (2009);
         "P. Giannozzi et al., J. Phys.:Condens. Matter 29 465901 (2017);
          URL http://www.quantum-espresso.org", 
     in publications or presentations arising from this work. More details at
     http://www.quantum-espresso.org/quote

     Parallel version (MPI), running on     4 processors

     MPI processes distributed on     1 nodes
     R & G space division:  proc/nbgrp/npool/nimage =       4
     Fft bands division:     nmany     =       1
     Reading input from 01_scf.in

     Current dimensions of program PWSCF are:
     Max number of different atomic species (ntypx) = 10
     Max number of k-points (npk) =  40000
     Max angular momentum in pseudopotentials (lmaxx) =  3

     Subspace diagonalization in iterative solution of the eigenvalue problem:
     a serial algorithm will be used

     Message from routine setup:
     using ibrav=0 with symmetry is DISCOURAGED, use correct ibrav instead
 
     Parallelization info
     --------------------
     sticks:   dense  smooth     PW     G-vecs:    dense   smooth      PW
     Min         180      90     30                 3156     1118     222
     Max         181      91     31                 3157     1120     225
     Sum         721     361    121                12627     4477     893
 


     bravais-lattice index     =            0
     lattice parameter (alat)  =       7.2125  a.u.
     unit-cell volume          =     265.3020 (a.u.)^3
     number of atoms/cell      =            2
     number of atomic types    =            1
     number of electrons       =         8.00
     number of Kohn-Sham states=            4
     kinetic-energy cutoff     =      25.0000  Ry
     charge density cutoff     =     200.0000  Ry
     convergence threshold     =      1.0E-10
     mixing beta               =       0.7000
     number of iterations used =            8  plain     mixing
     Exchange-correlation=  SLA  PW   PBE  PBE
                           (   1   4   3   4   0   0   0)

     celldm(1)=   7.212489  celldm(2)=   0.000000  celldm(3)=   0.000000
     celldm(4)=   0.000000  celldm(5)=   0.000000  celldm(6)=   0.000000

     crystal axes: (cart. coord. in units of alat)
               a(1) = (  -0.707107   0.000000   0.707107 )  
               a(2) = (   0.000000   0.707107   0.707107 )  
               a(3) = (  -0.707107   0.707107   0.000000 )  

     reciprocal axes: (cart. coord. in units 2 pi/alat)
               b(1) = ( -0.707107 -0.707107  0.707107 )  
               b(2) = (  0.707107  0.707107  0.707107 )  
               b(3) = ( -0.707107  0.707107 -0.707107 )  


     PseudoPot. # 1 for Si read from file:
     pseudo/Si.pbe-n-van.UPF
     MD5 check sum: 8a97496598b7338af554a5de8957bfee
     Pseudo is Ultrasoft + core correction, Zval =  4.0
     Generated by new atomic code, or converted to UPF format
     Using radial grid of  899 points,  6 beta functions with: 
                l(1) =   0
                l(2) =   0
                l(3) =   1
                l(4) =   1
                l(5) =   2
                l(6) =   2
     Q(r) pseudized with  8 coefficients,  rinner =    0.900   0.900   0.900
                                                       0.900   0.900

     atomic species   valence    mass     pseudopotential
        Si             4.00    28.00000     Si( 1.00)

     48 Sym. Ops., with inversion, found (24 have fractional translation)



   Cartesian axes

     site n.     atom                  positions (alat units)
         1           Si  tau(   1) = (   0.3535534   0.3535534   0.3535534  )
         2           Si  tau(   2) = (   0.0000000   0.0000000   0.0000000  )

     number of k points=    47
                       cart. coord. in units 2pi/alat
        k(    1) = (   0.0000000   0.0000000   0.0000000), wk =   0.0020000
        k(    2) = (  -0.0707107   0.0707107  -0.0707107), wk =   0.0160000
        k(    3) = (  -0.1414214   0.1414214  -0.1414214), wk =   0.0160000
        k(    4) = (  -0.2121320   0.2121320  -0.2121320), wk =   0.0160000
        k(    5) = (  -0.2828427   0.2828427  -0.2828427), wk =   0.0160000
        k(    6) = (   0.3535534  -0.3535534   0.3535534), wk =   0.0080000
        k(    7) = (   0.0000000   0.1414214   0.0000000), wk =   0.0120000
        k(    8) = (  -0.0707107   0.2121320  -0.0707107), wk =   0.0480000
        k(    9) = (  -0.1414214   0.2828427  -0.1414214), wk =   0.0480000
        k(   10) = (  -0.2121320   0.3535534  -0.2121320), wk =   0.0480000
        k(   11) = (   0.4242641  -0.2828427   0.4242641), wk =   0.0480000
        k(   12) = (   0.3535534  -0.2121320   0.3535534), wk =   0.0480000
        k(   13) = (   0.2828427  -0.1414214   0.2828427), wk =   0.0480000
        k(   14) = (   0.2121320  -0.0707107   0.2121320), wk =   0.0480000
        k(   15) = (   0.1414214   0.0000000   0.1414214), wk =   0.0240000
        k(   16) = (   0.0000000   0.2828427   0.0000000), wk =   0.0120000
        k(   17) = (  -0.0707107   0.3535534  -0.0707107), wk =   0.0480000
        k(   18) = (  -0.1414214   0.4242641  -0.1414214), wk =   0.0480000
        k(   19) = (   0.4949747  -0.2121320   0.4949747), wk =   0.0480000
        k(   20) = (   0.4242641  -0.1414214   0.4242641), wk =   0.0480000
        k(   21) = (   0.3535534  -0.0707107   0.3535534), wk =   0.0480000
        k(   22) = (   0.2828427   0.0000000   0.2828427), wk =   0.0240000
        k(   23) = (   0.0000000   0.4242641   0.0000000), wk =   0.0120000
        k(   24) = (  -0.0707107   0.4949747  -0.0707107), wk =   0.0480000
        k(   25) = (   0.5656854  -0.1414214   0.5656854), wk =   0.0480000
        k(   26) = (   0.4949747  -0.0707107   0.4949747), wk =   0.0480000
        k(   27) = (   0.4242641  -0.0000000   0.4242641), wk =   0.0240000
        k(   28) = (   0.0000000   0.5656854   0.0000000), wk =   0.0120000
        k(   29) = (   0.6363961  -0.0707107   0.6363961), wk =   0.0480000
        k(   30) = (   0.5656854   0.0000000   0.5656854), wk =   0.0240000
        k(   31) = (   0.0000000  -0.7071068   0.0000000), wk =   0.0060000
        k(   32) = (  -0.1414214   0.2828427   0.0000000), wk =   0.0480000
        k(   33) = (  -0.2121320   0.3535534  -0.0707107), wk =   0.0960000
        k(   34) = (   0.4242641  -0.2828427   0.5656854), wk =   0.0960000
        k(   35) = (   0.3535534  -0.2121320   0.4949747), wk =   0.0480000
        k(   36) = (  -0.1414214   0.4242641  -0.0000000), wk =   0.0480000
        k(   37) = (   0.4949747  -0.2121320   0.6363961), wk =   0.0960000
        k(   38) = (   0.4242641  -0.1414214   0.5656854), wk =   0.0960000
        k(   39) = (   0.3535534  -0.0707107   0.4949747), wk =   0.0960000
        k(   40) = (   0.2828427   0.0000000   0.4242641), wk =   0.0480000
        k(   41) = (   0.5656854  -0.1414214   0.7071068), wk =   0.0480000
        k(   42) = (   0.4949747  -0.0707107   0.6363961), wk =   0.0960000
        k(   43) = (   0.4242641  -0.0000000   0.5656854), wk =   0.0480000
        k(   44) = (  -0.1414214  -0.7071068   0.0000000), wk =   0.0240000
        k(   45) = (   0.4242641  -0.1414214   0.7071068), wk =   0.0480000
        k(   46) = (   0.3535534  -0.0707107   0.6363961), wk =   0.0480000
        k(   47) = (  -0.2828427  -0.7071068   0.0000000), wk =   0.0240000

     Dense  grid:    12627 G-vectors     FFT dimensions: (  36,  36,  36)

     Smooth grid:     4477 G-vectors     FFT dimensions: (  24,  24,  24)

     Estimated max dynamical RAM per process >      12.78 MB

     Estimated total dynamical RAM >      51.11 MB

     Initial potential from superposition of free atoms

     starting charge    7.99866, renormalised to    8.00000
     Starting wfcs are    8 randomized atomic wfcs

     total cpu time spent up to now is        0.1 secs

     Self-consistent Calculation

     iteration #  1     ecut=    25.00 Ry     beta= 0.70
     Davidson diagonalization with overlap
     ethr =  1.00E-02,  avg # of iterations =  2.0

     Threshold (ethr) on eigenvalues was too large:
     Diagonalizing with lowered threshold

     Davidson diagonalization with overlap
     ethr =  6.70E-04,  avg # of iterations =  1.0

     total cpu time spent up to now is        0.3 secs

     total energy              =     -19.18916187 Ry
     estimated scf accuracy    <       0.05752561 Ry

     iteration #  2     ecut=    25.00 Ry     beta= 0.70
     Davidson diagonalization with overlap
     ethr =  7.19E-04,  avg # of iterations =  1.0

     total cpu time spent up to now is        0.4 secs

     total energy              =     -19.19147521 Ry
     estimated scf accuracy    <       0.00239796 Ry

     iteration #  3     ecut=    25.00 Ry     beta= 0.70
     Davidson diagonalization with overlap
     ethr =  3.00E-05,  avg # of iterations =  2.0

     total cpu time spent up to now is        0.5 secs

     total energy              =     -19.19187601 Ry
     estimated scf accuracy    <       0.00004536 Ry

     iteration #  4     ecut=    25.00 Ry     beta= 0.70
     Davidson diagonalization with overlap
     ethr =  5.67E-07,  avg # of iterations =  5.4

     total cpu time spent up to now is        0.7 secs

     total energy              =     -19.19193837 Ry
     estimated scf accuracy    <       0.00000020 Ry

     iteration #  5     ecut=    25.00 Ry     beta= 0.70
     Davidson diagonalization with overlap
     ethr =  2.45E-09,  avg # of iterations =  7.3

     total cpu time spent up to now is        0.8 secs

     total energy              =     -19.19194001 Ry
     estimated scf accuracy    <       0.00000004 Ry

     iteration #  6     ecut=    25.00 Ry     beta= 0.70
     Davidson diagonalization with overlap
     ethr =  5.58E-10,  avg # of iterations =  2.2

     total cpu time spent up to now is        1.0 secs

     total energy              =     -19.19194002 Ry
     estimated scf accuracy    <          7.5E-09 Ry

     iteration #  7     ecut=    25.00 Ry     beta= 0.70
     Davidson diagonalization with overlap
     ethr =  9.38E-11,  avg # of iterations =  2.2

     total cpu time spent up to now is        1.1 secs

     total energy              =     -19.19194002 Ry
     estimated scf accuracy    <          2.8E-10 Ry

     iteration #  8     ecut=    25.00 Ry     beta= 0.70
     Davidson diagonalization with overlap
     ethr =  3.48E-12,  avg # of iterations =  3.8

     total cpu time spent up to now is        1.2 secs

     End of self-consistent calculation

          k = 0.0000 0.0000 0.0000 (   537 PWs)   bands (ev):

    -5.6988   6.3865   6.3865   6.3865

          k =-0.0707 0.0707-0.0707 (   549 PWs)   bands (ev):

    -5.5659   5.2388   6.1842   6.1842

          k =-0.1414 0.1414-0.1414 (   564 PWs)   bands (ev):

    -5.1732   3.3566   5.7975   5.7975

          k =-0.2121 0.2121-0.2121 (   567 PWs)   bands (ev):

    -4.5472   1.5461   5.4583   5.4583

          k =-0.2828 0.2828-0.2828 (   559 PWs)   bands (ev):

    -3.7852   0.0457   5.2438   5.2438

          k = 0.3536-0.3536 0.3536 (   568 PWs)   bands (ev):

    -3.3216  -0.6675   5.1714   5.1714

          k = 0.0000 0.1414 0.0000 (   556 PWs)   bands (ev):

    -5.5213   5.4638   5.7975   5.7975

          k =-0.0707 0.2121-0.0707 (   557 PWs)   bands (ev):

    -5.2140   3.9281   5.3553   5.5388

          k =-0.1414 0.2828-0.1414 (   564 PWs)   bands (ev):

    -4.6613   2.1417   5.0322   5.1007

          k =-0.2121 0.3536-0.2121 (   565 PWs)   bands (ev):

    -3.9238   0.5431   4.6833   4.8840

          k = 0.4243-0.2828 0.4243 (   566 PWs)   bands (ev):

    -3.2674  -0.5154   4.3876   4.9189

          k = 0.3536-0.2121 0.3536 (   571 PWs)   bands (ev):

    -3.4393  -0.2608   4.2552   5.1230

          k = 0.2828-0.1414 0.2828 (   564 PWs)   bands (ev):

    -4.1843   1.0453   4.3129   5.4637

          k = 0.2121-0.0707 0.2121 (   566 PWs)   bands (ev):

    -4.8722   2.7209   4.5880   5.8767

          k = 0.1414 0.0000 0.1414 (   559 PWs)   bands (ev):

    -5.3458   4.3542   5.2021   6.2089

          k = 0.0000 0.2828 0.0000 (   568 PWs)   bands (ev):

    -4.9924   3.7751   4.8706   4.8706

          k =-0.0707 0.3536-0.0707 (   564 PWs)   bands (ev):

    -4.5191   2.5066   4.3601   4.5173

          k =-0.1414 0.4243-0.1414 (   556 PWs)   bands (ev):

    -3.8319   1.0420   3.7250   4.3561

          k = 0.4950-0.2121 0.4950 (   563 PWs)   bands (ev):

    -3.0850  -0.1673   3.2079   4.4018

          k = 0.4243-0.1414 0.4243 (   562 PWs)   bands (ev):

    -2.9274  -0.3814   2.9027   4.6449

          k = 0.3536-0.0707 0.3536 (   556 PWs)   bands (ev):

    -3.5966   0.6279   2.8765   5.0499

          k = 0.2828 0.0000 0.2828 (   562 PWs)   bands (ev):

    -4.3279   1.8886   3.3308   5.5294

          k = 0.0000 0.4243 0.0000 (   564 PWs)   bands (ev):

    -4.1251   1.9640   4.1181   4.1181

          k =-0.0707 0.4950-0.0707 (   560 PWs)   bands (ev):

    -3.5021   0.9432   3.4792   3.9105

          k = 0.5657-0.1414 0.5657 (   560 PWs)   bands (ev):

    -2.7373  -0.0809   2.6339   3.9179

          k = 0.4950-0.0707 0.4950 (   559 PWs)   bands (ev):

    -2.3063  -0.5692   2.0692   4.1375

          k = 0.4243-0.0000 0.4243 (   554 PWs)   bands (ev):

    -2.8562   0.0311   2.0417   4.5411

          k = 0.0000 0.5657 0.0000 (   560 PWs)   bands (ev):

    -2.9435   0.1764   3.6465   3.6465

          k = 0.6364-0.0707 0.6364 (   562 PWs)   bands (ev):

    -2.2020  -0.6766   3.0459   3.5974

          k = 0.5657 0.0000 0.5657 (   552 PWs)   bands (ev):

    -1.7128  -1.1062   2.2435   3.7676

          k = 0.0000-0.7071 0.0000 (   556 PWs)   bands (ev):

    -1.4885  -1.4885   3.4867   3.4867

          k =-0.1414 0.2828 0.0000 (   559 PWs)   bands (ev):

    -4.8243   3.0044   4.2663   5.4030

          k =-0.2121 0.3536-0.0707 (   560 PWs)   bands (ev):

    -4.2024   1.5722   3.6744   5.0195

          k = 0.4243-0.2828 0.5657 (   560 PWs)   bands (ev):

    -3.4407   0.1831   3.4457   4.6610

          k = 0.3536-0.2121 0.4950 (   558 PWs)   bands (ev):

    -2.9697  -0.5105   3.3874   4.5195

          k =-0.1414 0.4243-0.0000 (   559 PWs)   bands (ev):

    -3.9725   1.5989   3.5280   4.2647

          k = 0.4950-0.2121 0.6364 (   562 PWs)   bands (ev):

    -3.2391   0.4782   2.9015   3.9276

          k = 0.4243-0.1414 0.5657 (   560 PWs)   bands (ev):

    -2.5738  -0.4049   2.4881   3.8708

          k = 0.3536-0.0707 0.4950 (   557 PWs)   bands (ev):

    -2.7798  -0.1394   2.3321   4.1163

          k = 0.2828 0.0000 0.4243 (   558 PWs)   bands (ev):

    -3.5306   0.8282   2.6341   4.5661

          k = 0.5657-0.1414 0.7071 (   566 PWs)   bands (ev):

    -2.8223   0.0905   3.1100   3.4405

          k = 0.4950-0.0707 0.6364 (   558 PWs)   bands (ev):

    -2.0690  -0.6962   2.3908   3.3486

          k = 0.4243-0.0000 0.5657 (   554 PWs)   bands (ev):

    -2.0714  -0.6720   1.9656   3.6236

          k =-0.1414-0.7071 0.0000 (   568 PWs)   bands (ev):

    -1.4329  -1.4329   3.0655   3.0655

          k = 0.4243-0.1414 0.7071 (   565 PWs)   bands (ev):

    -2.4932  -0.2124   2.3324   3.3362

          k = 0.3536-0.0707 0.6364 (   560 PWs)   bands (ev):

    -1.9709  -0.7304   2.1708   3.0796

          k =-0.2828-0.7071 0.0000 (   550 PWs)   bands (ev):

    -1.3344  -1.3344   2.5378   2.5378

     highest occupied level (ev):     6.3865

!    total energy              =     -19.19194002 Ry
     estimated scf accuracy    <          1.7E-11 Ry

     The total energy is the sum of the following terms:
     one-electron contribution =       5.25330318 Ry
     hartree contribution      =       1.10075158 Ry
     xc contribution           =      -8.64623618 Ry
     ewald contribution        =     -16.89975861 Ry

     convergence has been achieved in   8 iterations

     Writing output data file ./wfc-out/si.save/
 
     init_run     :      0.08s CPU      0.10s WALL (       1 calls)
     electrons    :      0.84s CPU      1.27s WALL (       1 calls)

     Called by init_run:
     wfcinit      :      0.03s CPU      0.04s WALL (       1 calls)
     potinit      :      0.00s CPU      0.01s WALL (       1 calls)
     hinit0       :      0.03s CPU      0.03s WALL (       1 calls)

     Called by electrons:
     c_bands      :      0.62s CPU      0.81s WALL (       9 calls)
     sum_band     :      0.14s CPU      0.16s WALL (       9 calls)
     v_of_rho     :      0.03s CPU      0.03s WALL (       9 calls)
     newd         :      0.04s CPU      0.05s WALL (       9 calls)
     mix_rho      :      0.00s CPU      0.00s WALL (       9 calls)

     Called by c_bands:
     init_us_2    :      0.03s CPU      0.04s WALL (     893 calls)
     cegterg      :      0.46s CPU      0.56s WALL (     423 calls)

     Called by *egterg:
     cdiaghg      :      0.04s CPU      0.05s WALL (    1646 calls)
     h_psi        :      0.36s CPU      0.45s WALL (    1740 calls)
     s_psi        :      0.01s CPU      0.02s WALL (    1740 calls)
     g_psi        :      0.00s CPU      0.00s WALL (    1270 calls)

     Called by h_psi:
     h_psi:calbec :      0.02s CPU      0.03s WALL (    1740 calls)
     vloc_psi     :      0.32s CPU      0.38s WALL (    1740 calls)
     add_vuspsi   :      0.01s CPU      0.02s WALL (    1740 calls)

     General routines
     calbec       :      0.02s CPU      0.03s WALL (    2163 calls)
     fft          :      0.01s CPU      0.02s WALL (     116 calls)
     ffts         :      0.00s CPU      0.00s WALL (      18 calls)
     fftw         :      0.31s CPU      0.38s WALL (   13636 calls)
     interpolate  :      0.00s CPU      0.00s WALL (       9 calls)
 
     Parallel routines
     fft_scatt_xy :      0.06s CPU      0.08s WALL (   13770 calls)
     fft_scatt_yz :      0.12s CPU      0.14s WALL (   13770 calls)
 
     PWSCF        :      0.99s CPU      5.58s WALL

 
   This run was terminated on:  17:45:27  10May2023            

=------------------------------------------------------------------------------=
   JOB DONE.
=------------------------------------------------------------------------------=
