ESCALE ; pCOHP file generated by LOBSTER. Energy is shifted such that the Fermi level lies at 0 eV.
         2          1        801  -1.23559e+01   2.76941e+01   9.67159e+00 
Average
No.1:C2->C1(1.5474217615784804)
-22.02753   0.00000   0.00000   0.00000   0.00000
-21.97747   0.00000   0.00000   0.00000   0.00000
-21.92741   0.00000   0.00000   0.00000   0.00000
-21.87735   0.00000   0.00000   0.00000   0.00000
-21.82728   0.00000   0.00000   0.00000   0.00000
-21.77722   0.00000   0.00000   0.00000   0.00000
-21.72716   0.00000   0.00000   0.00000   0.00000
-21.67710   0.00000   0.00000   0.00000   0.00000
-21.62703   0.00000   0.00000   0.00000   0.00000
-21.57697   0.00000   0.00000   0.00000   0.00000
-21.52691   0.00000   0.00000   0.00000   0.00000
-21.47685   0.00000   0.00000   0.00000   0.00000
-21.42678   0.00000   0.00000   0.00000   0.00000
-21.37672  -0.00039  -0.00002  -0.00039  -0.00002
-21.32666  -0.00290  -0.00016  -0.00290  -0.00016
-21.27660  -0.00805  -0.00057  -0.00805  -0.00057
-21.22653  -0.01582  -0.00136  -0.01582  -0.00136
-21.17647  -0.02621  -0.00267  -0.02621  -0.00267
-21.12641  -0.03923  -0.00464  -0.03923  -0.00464
-21.07635  -0.05488  -0.00738  -0.05488  -0.00738
-21.02628  -0.07316  -0.01105  -0.07316  -0.01105
-20.97622  -0.09406  -0.01575  -0.09406  -0.01575
-20.92616  -0.11759  -0.02164  -0.11759  -0.02164
-20.87610  -0.14375  -0.02884  -0.14375  -0.02884
-20.82603  -0.16009  -0.03685  -0.16009  -0.03685
-20.77597  -0.14936  -0.04433  -0.14936  -0.04433
-20.72591  -0.14309  -0.05149  -0.14309  -0.05149
-20.67584  -0.14284  -0.05864  -0.14284  -0.05864
-20.62578  -0.14762  -0.06603  -0.14762  -0.06603
-20.57572  -0.15347  -0.07372  -0.15347  -0.07372
-20.52566  -0.15941  -0.08170  -0.15941  -0.08170
-20.47559  -0.16545  -0.08998  -0.16545  -0.08998
-20.42553  -0.17157  -0.09857  -0.17157  -0.09857
-20.37547  -0.17779  -0.10747  -0.17779  -0.10747
-20.32541  -0.18410  -0.11669  -0.18410  -0.11669
-20.27534  -0.19050  -0.12622  -0.19050  -0.12622
-20.22528  -0.19700  -0.13609  -0.19700  -0.13609
-20.17522  -0.20358  -0.14628  -0.20358  -0.14628
-20.12516  -0.21026  -0.15680  -0.21026  -0.15680
-20.07509  -0.21703  -0.16767  -0.21703  -0.16767
-20.02503  -0.22389  -0.17888  -0.22389  -0.17888
-19.97497  -0.23085  -0.19044  -0.23085  -0.19044
-19.92491  -0.23789  -0.20235  -0.23789  -0.20235
-19.87484  -0.24483  -0.21460  -0.24483  -0.21460
-19.82478  -0.25123  -0.22718  -0.25123  -0.22718
-19.77472  -0.25700  -0.24005  -0.25700  -0.24005
-19.72466  -0.26217  -0.25317  -0.26217  -0.25317
-19.67459  -0.26673  -0.26652  -0.26673  -0.26652
-19.62453  -0.27068  -0.28007  -0.27068  -0.28007
-19.57447  -0.27401  -0.29379  -0.27401  -0.29379
-19.52441  -0.27673  -0.30765  -0.27673  -0.30765
-19.47434  -0.27885  -0.32161  -0.27885  -0.32161
-19.42428  -0.28035  -0.33564  -0.28035  -0.33564
-19.37422  -0.28125  -0.34972  -0.28125  -0.34972
-19.32416  -0.28275  -0.36388  -0.28275  -0.36388
-19.27409  -0.28523  -0.37816  -0.28523  -0.37816
-19.22403  -0.28830  -0.39259  -0.28830  -0.39259
-19.17397  -0.29195  -0.40720  -0.29195  -0.40720
-19.12390  -0.29586  -0.42202  -0.29586  -0.42202
-19.07384  -0.29980  -0.43703  -0.29980  -0.43703
-19.02378  -0.30375  -0.45223  -0.30375  -0.45223
-18.97372  -0.30772  -0.46764  -0.30772  -0.46764
-18.92365  -0.31170  -0.48324  -0.31170  -0.48324
-18.87359  -0.31570  -0.49905  -0.31570  -0.49905
-18.82353  -0.31971  -0.51505  -0.31971  -0.51505
-18.77347  -0.32374  -0.53126  -0.32374  -0.53126
-18.72340  -0.32778  -0.54767  -0.32778  -0.54767
-18.67334  -0.33184  -0.56428  -0.33184  -0.56428
-18.62328  -0.33591  -0.58110  -0.33591  -0.58110
-18.57322  -0.34000  -0.59812  -0.34000  -0.59812
-18.52315  -0.34410  -0.61535  -0.34410  -0.61535
-18.47309  -0.34822  -0.63278  -0.34822  -0.63278
-18.42303  -0.35235  -0.65042  -0.35235  -0.65042
-18.37297  -0.35651  -0.66827  -0.35651  -0.66827
-18.32290  -0.36068  -0.68632  -0.36068  -0.68632
-18.27284  -0.36489  -0.70459  -0.36489  -0.70459
-18.22278  -0.36911  -0.72307  -0.36911  -0.72307
-18.17272  -0.37336  -0.74176  -0.37336  -0.74176
-18.12265  -0.37763  -0.76067  -0.37763  -0.76067
-18.07259  -0.38193  -0.77979  -0.38193  -0.77979
-18.02253  -0.38625  -0.79912  -0.38625  -0.79912
-17.97247  -0.39060  -0.81868  -0.39060  -0.81868
-17.92240  -0.39465  -0.83843  -0.39465  -0.83843
-17.87234  -0.39622  -0.85827  -0.39622  -0.85827
-17.82228  -0.39781  -0.87819  -0.39781  -0.87819
-17.77222  -0.40009  -0.89821  -0.40009  -0.89821
-17.72215  -0.40306  -0.91839  -0.40306  -0.91839
-17.67209  -0.40631  -0.93873  -0.40631  -0.93873
-17.62203  -0.40961  -0.95924  -0.40961  -0.95924
-17.57196  -0.41293  -0.97991  -0.41293  -0.97991
-17.52190  -0.41628  -1.00075  -0.41628  -1.00075
-17.47184  -0.41966  -1.02176  -0.41966  -1.02176
-17.42178  -0.42308  -1.04294  -0.42308  -1.04294
-17.37171  -0.42652  -1.06430  -0.42652  -1.06430
-17.32165  -0.43000  -1.08582  -0.43000  -1.08582
-17.27159  -0.43350  -1.10752  -0.43350  -1.10752
-17.22153  -0.43704  -1.12940  -0.43704  -1.12940
-17.17146  -0.44060  -1.15146  -0.44060  -1.15146
-17.12140  -0.44420  -1.17370  -0.44420  -1.17370
-17.07134  -0.44782  -1.19612  -0.44782  -1.19612
-17.02128  -0.45156  -1.21872  -0.45156  -1.21872
-16.97121  -0.45570  -1.24154  -0.45570  -1.24154
-16.92115  -0.46031  -1.26458  -0.46031  -1.26458
-16.87109  -0.46539  -1.28788  -0.46539  -1.28788
-16.82103  -0.47094  -1.31146  -0.47094  -1.31146
-16.77096  -0.47695  -1.33533  -0.47695  -1.33533
-16.72090  -0.48344  -1.35954  -0.48344  -1.35954
-16.67084  -0.49039  -1.38409  -0.49039  -1.38409
-16.62078  -0.49782  -1.40901  -0.49782  -1.40901
-16.57071  -0.50933  -1.43451  -0.50933  -1.43451
-16.52065  -0.52356  -1.46072  -0.52356  -1.46072
-16.47059  -0.53686  -1.48760  -0.53686  -1.48760
-16.42053  -0.54925  -1.51509  -0.54925  -1.51509
-16.37046  -0.56064  -1.54316  -0.56064  -1.54316
-16.32040  -0.57103  -1.57175  -0.57103  -1.57175
-16.27034  -0.58040  -1.60080  -0.58040  -1.60080
-16.22028  -0.58876  -1.63028  -0.58876  -1.63028
-16.17021  -0.59612  -1.66012  -0.59612  -1.66012
-16.12015  -0.60246  -1.69028  -0.60246  -1.69028
-16.07009  -0.60780  -1.72071  -0.60780  -1.72071
-16.02003  -0.61213  -1.75135  -0.61213  -1.75135
-15.96996  -0.61545  -1.78217  -0.61545  -1.78217
-15.91990  -0.61776  -1.81309  -0.61776  -1.81309
-15.86984  -0.61906  -1.84408  -0.61906  -1.84408
-15.81977  -0.61935  -1.87509  -0.61935  -1.87509
-15.76971  -0.61864  -1.90606  -0.61864  -1.90606
-15.71965  -0.61691  -1.93695  -0.61691  -1.93695
-15.66959  -0.61455  -1.96771  -0.61455  -1.96771
-15.61952  -0.61267  -1.99838  -0.61267  -1.99838
-15.56946  -0.61150  -2.02900  -0.61150  -2.02900
-15.51940  -0.61104  -2.05959  -0.61104  -2.05959
-15.46934  -0.61129  -2.09019  -0.61129  -2.09019
-15.41927  -0.61225  -2.12084  -0.61225  -2.12084
-15.36921  -0.64458  -2.15311  -0.64458  -2.15311
-15.31915  -0.93259  -2.19980  -0.93259  -2.19980
-15.26909  -0.93102  -2.24641  -0.93102  -2.24641
-15.21902  -0.67274  -2.28009  -0.67274  -2.28009
-15.16896  -0.64276  -2.31226  -0.64276  -2.31226
-15.11890  -0.62883  -2.34374  -0.62883  -2.34374
-15.06884  -0.61545  -2.37456  -0.61545  -2.37456
-15.01877  -0.60263  -2.40472  -0.60263  -2.40472
-14.96871  -0.59037  -2.43428  -0.59037  -2.43428
-14.91865  -0.57866  -2.46325  -0.57866  -2.46325
-14.86859  -0.56812  -2.49169  -0.56812  -2.49169
-14.81852  -0.55850  -2.51965  -0.55850  -2.51965
-14.76846  -0.54936  -2.54715  -0.54936  -2.54715
-14.71840  -0.54071  -2.57422  -0.54071  -2.57422
-14.66834  -0.53254  -2.60088  -0.53254  -2.60088
-14.61827  -0.52485  -2.62716  -0.52485  -2.62716
-14.56821  -0.51765  -2.65307  -0.51765  -2.65307
-14.51815  -0.51092  -2.67865  -0.51092  -2.67865
-14.46809  -0.50468  -2.70392  -0.50468  -2.70392
-14.41802  -0.49893  -2.72889  -0.49893  -2.72889
-14.36796  -0.49365  -2.75361  -0.49365  -2.75361
-14.31790  -0.48911  -2.77809  -0.48911  -2.77809
-14.26783  -0.49131  -2.80269  -0.49131  -2.80269
-14.21777  -0.49552  -2.82750  -0.49552  -2.82750
-14.16771  -0.49856  -2.85246  -0.49856  -2.85246
-14.11765  -0.50043  -2.87751  -0.50043  -2.87751
-14.06758  -0.50114  -2.90260  -0.50114  -2.90260
-14.01752  -0.50098  -2.92768  -0.50098  -2.92768
-13.96746  -0.50003  -2.95271  -0.50003  -2.95271
-13.91740  -0.49764  -2.97762  -0.49764  -2.97762
-13.86733  -0.49379  -3.00234  -0.49379  -3.00234
-13.81727  -0.48848  -3.02680  -0.48848  -3.02680
-13.76721  -0.48172  -3.05092  -0.48172  -3.05092
-13.71715  -0.47349  -3.07462  -0.47349  -3.07462
-13.66708  -0.46381  -3.09784  -0.46381  -3.09784
-13.61702  -0.45267  -3.12050  -0.45267  -3.12050
-13.56696  -0.44008  -3.14253  -0.44008  -3.14253
-13.51690  -0.42602  -3.16386  -0.42602  -3.16386
-13.46683  -0.41051  -3.18441  -0.41051  -3.18441
-13.41677  -0.39354  -3.20411  -0.39354  -3.20411
-13.36671  -0.37512  -3.22289  -0.37512  -3.22289
-13.31665  -0.35523  -3.24068  -0.35523  -3.24068
-13.26658  -0.33389  -3.25739  -0.33389  -3.25739
-13.21652  -0.31109  -3.27297  -0.31109  -3.27297
-13.16646  -0.28683  -3.28733  -0.28683  -3.28733
-13.11640  -0.26112  -3.30040  -0.26112  -3.30040
-13.06633  -0.23395  -3.31211  -0.23395  -3.31211
-13.01627  -0.20532  -3.32239  -0.20532  -3.32239
-12.96621  -0.28748  -3.33678  -0.28748  -3.33678
-12.91615  -0.07389  -3.34048  -0.07389  -3.34048
-12.86608  -0.05488  -3.34323  -0.05488  -3.34323
-12.81602  -0.03843  -3.34515  -0.03843  -3.34515
-12.76596  -0.02454  -3.34638  -0.02454  -3.34638
-12.71589  -0.01320  -3.34704  -0.01320  -3.34704
-12.66583  -0.03128  -3.34861  -0.03128  -3.34861
-12.61577  -0.08427  -3.35283  -0.08427  -3.35283
-12.56571  -0.13341  -3.35950  -0.13341  -3.35950
-12.51564  -0.17429  -3.36823  -0.17429  -3.36823
-12.46558  -0.20685  -3.37859  -0.20685  -3.37859
-12.41552  -0.23110  -3.39016  -0.23110  -3.39016
-12.36546  -0.24936  -3.40264  -0.24936  -3.40264
-12.31539  -0.26331  -3.41582  -0.26331  -3.41582
-12.26533  -0.27055  -3.42937  -0.27055  -3.42937
-12.21527  -0.27105  -3.44294  -0.27105  -3.44294
-12.16521  -0.26482  -3.45619  -0.26482  -3.45619
-12.11514  -0.27192  -3.46981  -0.27192  -3.46981
-12.06508  -0.29882  -3.48477  -0.29882  -3.48477
-12.01502  -0.32777  -3.50117  -0.32777  -3.50117
-11.96496  -0.35878  -3.51914  -0.35878  -3.51914
-11.91489  -0.39185  -3.53875  -0.39185  -3.53875
-11.86483  -0.42697  -3.56013  -0.42697  -3.56013
-11.81477  -0.46415  -3.58336  -0.46415  -3.58336
-11.76471  -0.50338  -3.60856  -0.50338  -3.60856
-11.71464  -0.54466  -3.63583  -0.54466  -3.63583
-11.66458  -0.58800  -3.66527  -0.58800  -3.66527
-11.61452  -0.62804  -3.69671  -0.62804  -3.69671
-11.56446  -0.65525  -3.72951  -0.65525  -3.72951
-11.51439  -0.69119  -3.76412  -0.69119  -3.76412
-11.46433  -0.73762  -3.80104  -0.73762  -3.80104
-11.41427  -0.79455  -3.84082  -0.79455  -3.84082
-11.36421  -0.86197  -3.88397  -0.86197  -3.88397
-11.31414  -1.18869  -3.94348  -1.18869  -3.94348
-11.26408  -1.24056  -4.00559  -1.24056  -4.00559
-11.21402  -1.36876  -4.07411  -1.36876  -4.07411
-11.16395  -1.43362  -4.14588  -1.43362  -4.14588
-11.11389  -1.43514  -4.21773  -1.43514  -4.21773
-11.06383  -1.37333  -4.28648  -1.37333  -4.28648
-11.01377  -1.24819  -4.34897  -1.24819  -4.34897
-10.96370  -1.08510  -4.40329  -1.08510  -4.40329
-10.91364  -0.99802  -4.45326  -0.99802  -4.45326
-10.86358  -0.92646  -4.49964  -0.92646  -4.49964
-10.81352  -0.85940  -4.54266  -0.85940  -4.54266
-10.76345  -0.79684  -4.58255  -0.79684  -4.58255
-10.71339  -0.73878  -4.61954  -0.73878  -4.61954
-10.66333  -0.68522  -4.65384  -0.68522  -4.65384
-10.61327  -0.63616  -4.68569  -0.63616  -4.68569
-10.56320  -0.59160  -4.71531  -0.59160  -4.71531
-10.51314  -0.55155  -4.74292  -0.55155  -4.74292
-10.46308  -0.51599  -4.76875  -0.51599  -4.76875
-10.41302  -0.48489  -4.79302  -0.48489  -4.79302
-10.36295  -0.46035  -4.81607  -0.46035  -4.81607
-10.31289  -0.44768  -4.83848  -0.44768  -4.83848
-10.26283  -0.43662  -4.86034  -0.43662  -4.86034
-10.21277  -0.42610  -4.88167  -0.42610  -4.88167
-10.16270  -0.41614  -4.90251  -0.41614  -4.90251
-10.11264  -0.40673  -4.92287  -0.40673  -4.92287
-10.06258  -0.39788  -4.94279  -0.39788  -4.94279
-10.01252  -0.38957  -4.96229  -0.38957  -4.96229
 -9.96245  -0.38182  -4.98140  -0.38182  -4.98140
 -9.91239  -0.37462  -5.00016  -0.37462  -5.00016
 -9.86233  -0.36797  -5.01858  -0.36797  -5.01858
 -9.81227  -0.36188  -5.03670  -0.36188  -5.03670
 -9.76220  -0.35633  -5.05454  -0.35633  -5.05454
 -9.71214  -0.35131  -5.07212  -0.35131  -5.07212
 -9.66208  -0.34659  -5.08947  -0.34659  -5.08947
 -9.61202  -0.34211  -5.10660  -0.34211  -5.10660
 -9.56195  -0.33785  -5.12351  -0.33785  -5.12351
 -9.51189  -0.33382  -5.14023  -0.33382  -5.14023
 -9.46183  -0.33001  -5.15675  -0.33001  -5.15675
 -9.41176  -0.32643  -5.17309  -0.32643  -5.17309
 -9.36170  -0.32308  -5.18926  -0.32308  -5.18926
 -9.31164  -0.31996  -5.20528  -0.31996  -5.20528
 -9.26158  -0.31706  -5.22115  -0.31706  -5.22115
 -9.21151  -0.31439  -5.23689  -0.31439  -5.23689
 -9.16145  -0.31195  -5.25251  -0.31195  -5.25251
 -9.11139  -0.46029  -5.27555  -0.46029  -5.27555
 -9.06133  -0.36714  -5.29393  -0.36714  -5.29393
 -9.01126  -0.37319  -5.31262  -0.37319  -5.31262
 -8.96120  -0.38010  -5.33165  -0.38010  -5.33165
 -8.91114  -0.38535  -5.35094  -0.38535  -5.35094
 -8.86108  -0.39324  -5.37062  -0.39324  -5.37062
 -8.81101  -0.40393  -5.39085  -0.40393  -5.39085
 -8.76095  -0.41742  -5.41174  -0.41742  -5.41174
 -8.71089  -0.43371  -5.43346  -0.43371  -5.43346
 -8.66083  -0.45275  -5.45612  -0.45275  -5.45612
 -8.61076  -0.47416  -5.47986  -0.47416  -5.47986
 -8.56070  -0.49834  -5.50481  -0.49834  -5.50481
 -8.51064  -0.52535  -5.53111  -0.52535  -5.53111
 -8.46058  -0.55242  -5.55876  -0.55242  -5.55876
 -8.41051  -0.57596  -5.58760  -0.57596  -5.58760
 -8.36045  -0.59572  -5.61742  -0.59572  -5.61742
 -8.31039  -0.61169  -5.64804  -0.61169  -5.64804
 -8.26033  -0.62387  -5.67928  -0.62387  -5.67928
 -8.21026  -0.63228  -5.71093  -0.63228  -5.71093
 -8.16020  -0.63689  -5.74281  -0.63689  -5.74281
 -8.11014  -0.63665  -5.77469  -0.63665  -5.77469
 -8.06008  -0.62946  -5.80620  -0.62946  -5.80620
 -8.01001  -0.62288  -5.83738  -0.62288  -5.83738
 -7.95995  -0.61782  -5.86831  -0.61782  -5.86831
 -7.90989  -0.61426  -5.89906  -0.61426  -5.89906
 -7.85982  -0.61223  -5.92971  -0.61223  -5.92971
 -7.80976  -0.62601  -5.96105  -0.62601  -5.96105
 -7.75970  -0.67302  -5.99475  -0.67302  -5.99475
 -7.70964  -0.70003  -6.02979  -0.70003  -6.02979
 -7.65957  -0.70361  -6.06501  -0.70361  -6.06501
 -7.60951  -0.68376  -6.09925  -0.68376  -6.09925
 -7.55945  -0.64048  -6.13131  -0.64048  -6.13131
 -7.50939  -0.59511  -6.16110  -0.59511  -6.16110
 -7.45932  -0.59071  -6.19068  -0.59071  -6.19068
 -7.40926  -0.58929  -6.22018  -0.58929  -6.22018
 -7.35920  -0.58866  -6.24965  -0.58866  -6.24965
 -7.30914  -0.58882  -6.27912  -0.58882  -6.27912
 -7.25907  -0.58979  -6.30865  -0.58979  -6.30865
 -7.20901  -0.59155  -6.33826  -0.59155  -6.33826
 -7.15895  -0.59411  -6.36801  -0.59411  -6.36801
 -7.10889  -0.59747  -6.39792  -0.59747  -6.39792
 -7.05882  -0.60162  -6.42804  -0.60162  -6.42804
 -7.00876  -0.60657  -6.45840  -0.60657  -6.45840
 -6.95870  -0.60959  -6.48892  -0.60959  -6.48892
 -6.90864  -0.60192  -6.51905  -0.60192  -6.51905
 -6.85857  -0.60526  -6.54936  -0.60526  -6.54936
 -6.80851  -0.66511  -6.58265  -0.66511  -6.58265
 -6.75845  -0.73324  -6.61936  -0.73324  -6.61936
 -6.70839  -0.80285  -6.65955  -0.80285  -6.65955
 -6.65832  -0.87395  -6.70331  -0.87395  -6.70331
 -6.60826  -0.94654  -6.75069  -0.94654  -6.75069
 -6.55820  -1.03435  -6.80247  -1.03435  -6.80247
 -6.50814  -0.78168  -6.84161  -0.78168  -6.84161
 -6.45807  -0.79057  -6.88119  -0.79057  -6.88119
 -6.40801  -0.80069  -6.92127  -0.80069  -6.92127
 -6.35795  -0.81202  -6.96192  -0.81202  -6.96192
 -6.30788  -0.81451  -7.00270  -0.81451  -7.00270
 -6.25782  -0.81527  -7.04351  -0.81527  -7.04351
 -6.20776  -0.83105  -7.08512  -0.83105  -7.08512
 -6.15770  -0.85040  -7.12769  -0.85040  -7.12769
 -6.10763  -0.87331  -7.17141  -0.87331  -7.17141
 -6.05757  -0.99076  -7.22101  -0.99076  -7.22101
 -6.00751  -1.04367  -7.27326  -1.04367  -7.27326
 -5.95745  -0.86321  -7.31647  -0.86321  -7.31647
 -5.90738  -0.79744  -7.35640  -0.79744  -7.35640
 -5.85732  -0.78626  -7.39576  -0.78626  -7.39576
 -5.80726  -0.77641  -7.43463  -0.77641  -7.43463
 -5.75720  -0.76789  -7.47307  -0.76789  -7.47307
 -5.70713  -0.76070  -7.51115  -0.76070  -7.51115
 -5.65707  -0.75484  -7.54894  -0.75484  -7.54894
 -5.60701  -0.75026  -7.58650  -0.75026  -7.58650
 -5.55695  -0.74633  -7.62386  -0.74633  -7.62386
 -5.50688  -0.74256  -7.66104  -0.74256  -7.66104
 -5.45682  -0.73893  -7.69803  -0.73893  -7.69803
 -5.40676  -0.73544  -7.73485  -0.73544  -7.73485
 -5.35670  -0.73210  -7.77150  -0.73210  -7.77150
 -5.30663  -0.72891  -7.80799  -0.72891  -7.80799
 -5.25657  -0.72517  -7.84430  -0.72517  -7.84430
 -5.20651  -0.71783  -7.88023  -0.71783  -7.88023
 -5.15645  -0.71137  -7.91585  -0.71137  -7.91585
 -5.10638  -0.70661  -7.95122  -0.70661  -7.95122
 -5.05632  -0.70357  -7.98644  -0.70357  -7.98644
 -5.00626  -0.70223  -8.02160  -0.70223  -8.02160
 -4.95620  -0.70198  -8.05674  -0.70198  -8.05674
 -4.90613  -0.69666  -8.09162  -0.69666  -8.09162
 -4.85607  -0.68978  -8.12615  -0.68978  -8.12615
 -4.80601  -0.68192  -8.16029  -0.68192  -8.16029
 -4.75594  -0.67390  -8.19403  -0.67390  -8.19403
 -4.70588  -0.66605  -8.22737  -0.66605  -8.22737
 -4.65582  -0.65833  -8.26033  -0.65833  -8.26033
 -4.60576  -0.65057  -8.29290  -0.65057  -8.29290
 -4.55569  -0.64265  -8.32507  -0.64265  -8.32507
 -4.50563  -0.63456  -8.35684  -0.63456  -8.35684
 -4.45557  -0.62630  -8.38819  -0.62630  -8.38819
 -4.40551  -0.61788  -8.41912  -0.61788  -8.41912
 -4.35544  -0.60929  -8.44963  -0.60929  -8.44963
 -4.30538  -0.60053  -8.47969  -0.60053  -8.47969
 -4.25532  -0.59160  -8.50931  -0.59160  -8.50931
 -4.20526  -0.58251  -8.53847  -0.58251  -8.53847
 -4.15519  -0.57324  -8.56717  -0.57324  -8.56717
 -4.10513  -0.56381  -8.59539  -0.56381  -8.59539
 -4.05507  -0.55422  -8.62314  -0.55422  -8.62314
 -4.00501  -0.54445  -8.65040  -0.54445  -8.65040
 -3.95494  -0.53452  -8.67716  -0.53452  -8.67716
 -3.90488  -0.52448  -8.70341  -0.52448  -8.70341
 -3.85482  -0.51458  -8.72917  -0.51458  -8.72917
 -3.80476  -0.50497  -8.75445  -0.50497  -8.75445
 -3.75469  -0.49604  -8.77929  -0.49604  -8.77929
 -3.70463  -0.48997  -8.80382  -0.48997  -8.80382
 -3.65457  -0.48754  -8.82822  -0.48754  -8.82822
 -3.60451  -0.48878  -8.85269  -0.48878  -8.85269
 -3.55444  -0.49368  -8.87741  -0.49368  -8.87741
 -3.50438  -0.50225  -8.90255  -0.50225  -8.90255
 -3.45432  -0.51449  -8.92831  -0.51449  -8.92831
 -3.40426  -0.52974  -8.95483  -0.52974  -8.95483
 -3.35419  -0.53592  -8.98166  -0.53592  -8.98166
 -3.30413  -0.53638  -9.00851  -0.53638  -9.00851
 -3.25407  -0.53001  -9.03504  -0.53001  -9.03504
 -3.20401  -0.52058  -9.06111  -0.52058  -9.06111
 -3.15394  -0.50944  -9.08661  -0.50944  -9.08661
 -3.10388  -0.49659  -9.11147  -0.49659  -9.11147
 -3.05382  -0.48202  -9.13560  -0.48202  -9.13560
 -3.00375  -0.46573  -9.15892  -0.46573  -9.15892
 -2.95369  -0.44717  -9.18130  -0.44717  -9.18130
 -2.90363  -0.42545  -9.20260  -0.42545  -9.20260
 -2.85357  -0.40205  -9.22273  -0.40205  -9.22273
 -2.80350  -0.37705  -9.24161  -0.37705  -9.24161
 -2.75344  -0.35045  -9.25915  -0.35045  -9.25915
 -2.70338  -0.32360  -9.27535  -0.32360  -9.27535
 -2.65332  -0.30998  -9.29087  -0.30998  -9.29087
 -2.60325  -0.29946  -9.30586  -0.29946  -9.30586
 -2.55319  -0.28792  -9.32028  -0.28792  -9.32028
 -2.50313  -0.27524  -9.33405  -0.27524  -9.33405
 -2.45307  -0.26143  -9.34714  -0.26143  -9.34714
 -2.40300  -0.24651  -9.35948  -0.24651  -9.35948
 -2.35294  -0.23046  -9.37102  -0.23046  -9.37102
 -2.30288  -0.21335  -9.38170  -0.21335  -9.38170
 -2.25282  -0.19685  -9.39156  -0.19685  -9.39156
 -2.20275  -0.18288  -9.40071  -0.18288  -9.40071
 -2.15269  -0.17154  -9.40930  -0.17154  -9.40930
 -2.10263  -0.16283  -9.41745  -0.16283  -9.41745
 -2.05257  -0.15671  -9.42530  -0.15671  -9.42530
 -2.00250  -0.15295  -9.43295  -0.15295  -9.43295
 -1.95244  -0.15028  -9.44048  -0.15028  -9.44048
 -1.90238  -0.14756  -9.44786  -0.14756  -9.44786
 -1.85232  -0.14475  -9.45511  -0.14475  -9.45511
 -1.80225  -0.14186  -9.46221  -0.14186  -9.46221
 -1.75219  -0.13889  -9.46917  -0.13889  -9.46917
 -1.70213  -0.13583  -9.47597  -0.13583  -9.47597
 -1.65207  -0.13279  -9.48261  -0.13279  -9.48261
 -1.60200  -0.12995  -9.48912  -0.12995  -9.48912
 -1.55194  -0.12731  -9.49549  -0.12731  -9.49549
 -1.50188  -0.12488  -9.50174  -0.12488  -9.50174
 -1.45181  -0.12266  -9.50789  -0.12266  -9.50789
 -1.40175  -0.12064  -9.51393  -0.12064  -9.51393
 -1.35169  -0.11883  -9.51987  -0.11883  -9.51987
 -1.30163  -0.11722  -9.52574  -0.11722  -9.52574
 -1.25156  -0.11582  -9.53154  -0.11582  -9.53154
 -1.20150  -0.11462  -9.53728  -0.11462  -9.53728
 -1.15144  -0.11363  -9.54297  -0.11363  -9.54297
 -1.10138  -0.11284  -9.54862  -0.11284  -9.54862
 -1.05131  -0.11226  -9.55424  -0.11226  -9.55424
 -1.00125  -0.11181  -9.55983  -0.11181  -9.55983
 -0.95119  -0.10798  -9.56524  -0.10798  -9.56524
 -0.90113  -0.09605  -9.57005  -0.09605  -9.57005
 -0.85106  -0.07569  -9.57384  -0.07569  -9.57384
 -0.80100  -0.05139  -9.57641  -0.05139  -9.57641
 -0.75094  -0.04311  -9.57857  -0.04311  -9.57857
 -0.70088  -0.03755  -9.58045  -0.03755  -9.58045
 -0.65081  -0.03238  -9.58207  -0.03238  -9.58207
 -0.60075  -0.02759  -9.58345  -0.02759  -9.58345
 -0.55069  -0.02318  -9.58461  -0.02318  -9.58461
 -0.50063  -0.01916  -9.58557  -0.01916  -9.58557
 -0.45056  -0.01552  -9.58635  -0.01552  -9.58635
 -0.40050  -0.01227  -9.58696  -0.01227  -9.58696
 -0.35044  -0.00939  -9.58743  -0.00939  -9.58743
 -0.30038  -0.00690  -9.58778  -0.00690  -9.58778
 -0.25031  -0.00480  -9.58802  -0.00480  -9.58802
 -0.20025  -0.00307  -9.58817  -0.00307  -9.58817
 -0.15019  -0.00173  -9.58826  -0.00173  -9.58826
 -0.10013  -0.00078  -9.58830  -0.00078  -9.58830
 -0.05006  -0.00021  -9.58831  -0.00021  -9.58831
 -0.00000  -0.00001  -9.58831  -0.00001  -9.58831
  0.05006   0.00000  -9.58831   0.00000  -9.58831
  0.10013   0.00000  -9.58831   0.00000  -9.58831
  0.15019   0.00000  -9.58831   0.00000  -9.58831
  0.20025   0.00000  -9.58831   0.00000  -9.58831
  0.25031   0.00000  -9.58831   0.00000  -9.58831
  0.30038   0.00000  -9.58831   0.00000  -9.58831
  0.35044   0.00000  -9.58831   0.00000  -9.58831
  0.40050   0.00000  -9.58831   0.00000  -9.58831
  0.45056   0.00000  -9.58831   0.00000  -9.58831
  0.50063   0.00000  -9.58831   0.00000  -9.58831
  0.55069   0.00000  -9.58831   0.00000  -9.58831
  0.60075   0.00000  -9.58831   0.00000  -9.58831
  0.65081   0.00000  -9.58831   0.00000  -9.58831
  0.70088   0.00000  -9.58831   0.00000  -9.58831
  0.75094   0.00000  -9.58831   0.00000  -9.58831
  0.80100   0.00000  -9.58831   0.00000  -9.58831
  0.85106   0.00000  -9.58831   0.00000  -9.58831
  0.90113   0.00000  -9.58831   0.00000  -9.58831
  0.95119   0.00000  -9.58831   0.00000  -9.58831
  1.00125   0.00000  -9.58831   0.00000  -9.58831
  1.05131   0.00000  -9.58831   0.00000  -9.58831
  1.10138   0.00000  -9.58831   0.00000  -9.58831
  1.15144   0.00000  -9.58831   0.00000  -9.58831
  1.20150   0.00000  -9.58831   0.00000  -9.58831
  1.25156   0.00000  -9.58831   0.00000  -9.58831
  1.30163   0.00000  -9.58831   0.00000  -9.58831
  1.35169   0.00000  -9.58831   0.00000  -9.58831
  1.40175   0.00000  -9.58831   0.00000  -9.58831
  1.45181   0.00000  -9.58831   0.00000  -9.58831
  1.50188   0.00000  -9.58831   0.00000  -9.58831
  1.55194   0.00000  -9.58831   0.00000  -9.58831
  1.60200   0.00000  -9.58831   0.00000  -9.58831
  1.65207   0.00000  -9.58831   0.00000  -9.58831
  1.70213   0.00000  -9.58831   0.00000  -9.58831
  1.75219   0.00000  -9.58831   0.00000  -9.58831
  1.80225   0.00000  -9.58831   0.00000  -9.58831
  1.85232   0.00000  -9.58831   0.00000  -9.58831
  1.90238   0.00000  -9.58831   0.00000  -9.58831
  1.95244   0.00000  -9.58831   0.00000  -9.58831
  2.00250   0.00000  -9.58831   0.00000  -9.58831
  2.05257   0.00000  -9.58831   0.00000  -9.58831
  2.10263   0.00000  -9.58831   0.00000  -9.58831
  2.15269   0.00000  -9.58831   0.00000  -9.58831
  2.20275   0.00000  -9.58831   0.00000  -9.58831
  2.25282   0.00000  -9.58831   0.00000  -9.58831
  2.30288   0.00000  -9.58831   0.00000  -9.58831
  2.35294   0.00000  -9.58831   0.00000  -9.58831
  2.40300   0.00000  -9.58831   0.00000  -9.58831
  2.45307   0.00000  -9.58831   0.00000  -9.58831
  2.50313   0.00000  -9.58831   0.00000  -9.58831
  2.55319   0.00000  -9.58831   0.00000  -9.58831
  2.60325   0.00000  -9.58831   0.00000  -9.58831
  2.65332   0.00000  -9.58831   0.00000  -9.58831
  2.70338   0.00000  -9.58831   0.00000  -9.58831
  2.75344   0.00000  -9.58831   0.00000  -9.58831
  2.80350   0.00000  -9.58831   0.00000  -9.58831
  2.85357   0.00000  -9.58831   0.00000  -9.58831
  2.90363   0.00000  -9.58831   0.00000  -9.58831
  2.95369   0.00000  -9.58831   0.00000  -9.58831
  3.00375   0.00000  -9.58831   0.00000  -9.58831
  3.05382   0.00000  -9.58831   0.00000  -9.58831
  3.10388   0.00000  -9.58831   0.00000  -9.58831
  3.15394   0.00000  -9.58831   0.00000  -9.58831
  3.20401   0.00000  -9.58831   0.00000  -9.58831
  3.25407   0.00000  -9.58831   0.00000  -9.58831
  3.30413   0.00000  -9.58831   0.00000  -9.58831
  3.35419   0.00000  -9.58831   0.00000  -9.58831
  3.40426   0.00000  -9.58831   0.00000  -9.58831
  3.45432   0.00000  -9.58831   0.00000  -9.58831
  3.50438   0.00000  -9.58831   0.00000  -9.58831
  3.55444   0.00000  -9.58831   0.00000  -9.58831
  3.60451   0.00000  -9.58831   0.00000  -9.58831
  3.65457   0.00000  -9.58831   0.00000  -9.58831
  3.70463   0.00000  -9.58831   0.00000  -9.58831
  3.75469   0.00000  -9.58831   0.00000  -9.58831
  3.80476   0.00000  -9.58831   0.00000  -9.58831
  3.85482   0.00000  -9.58831   0.00000  -9.58831
  3.90488   0.00000  -9.58831   0.00000  -9.58831
  3.95494   0.00000  -9.58831   0.00000  -9.58831
  4.00501   0.00000  -9.58831   0.00000  -9.58831
  4.05507   0.00000  -9.58831   0.00000  -9.58831
  4.10513   0.00000  -9.58831   0.00000  -9.58831
  4.15519   0.00000  -9.58831   0.00000  -9.58831
  4.20526   0.00000  -9.58831   0.00000  -9.58831
  4.25532   0.00211  -9.58820   0.00211  -9.58820
  4.30538   0.01533  -9.58743   0.01533  -9.58743
  4.35544   0.03009  -9.58593   0.03009  -9.58593
  4.40551   0.04430  -9.58371   0.04430  -9.58371
  4.45557   0.05799  -9.58081   0.05799  -9.58081
  4.50563   0.07113  -9.57725   0.07113  -9.57725
  4.55569   0.08374  -9.57305   0.08374  -9.57305
  4.60576   0.09581  -9.56826   0.09581  -9.56826
  4.65582   0.10734  -9.56288   0.10734  -9.56288
  4.70588   0.11834  -9.55696   0.11834  -9.55696
  4.75594   0.12879  -9.55051   0.12879  -9.55051
  4.80601   0.13872  -9.54357   0.13872  -9.54357
  4.85607   0.14810  -9.53615   0.14810  -9.53615
  4.90613   0.15695  -9.52830   0.15695  -9.52830
  4.95620   0.16526  -9.52002   0.16526  -9.52002
  5.00626   0.17303  -9.51136   0.17303  -9.51136
  5.05632   0.18076  -9.50231   0.18076  -9.50231
  5.10638   0.18974  -9.49281   0.18974  -9.49281
  5.15645   0.19812  -9.48289   0.19812  -9.48289
  5.20651   0.20600  -9.47258   0.20600  -9.47258
  5.25657   0.21469  -9.46183   0.21469  -9.46183
  5.30663   0.22322  -9.45066   0.22322  -9.45066
  5.35670   0.23142  -9.43907   0.23142  -9.43907
  5.40676   0.23927  -9.42709   0.23927  -9.42709
  5.45682   0.24679  -9.41474   0.24679  -9.41474
  5.50688   0.25396  -9.40203   0.25396  -9.40203
  5.55695   0.26080  -9.38897   0.26080  -9.38897
  5.60701   0.26742  -9.37558   0.26742  -9.37558
  5.65707   0.27412  -9.36186   0.27412  -9.36186
  5.70713   0.28229  -9.34773   0.28229  -9.34773
  5.75720   0.29188  -9.33311   0.29188  -9.33311
  5.80726   0.30169  -9.31801   0.30169  -9.31801
  5.85732   0.31171  -9.30241   0.31171  -9.30241
  5.90738   0.32196  -9.28629   0.32196  -9.28629
  5.95745   0.33247  -9.26964   0.33247  -9.26964
  6.00751   0.34318  -9.25246   0.34318  -9.25246
  6.05757   0.35409  -9.23474   0.35409  -9.23474
  6.10763   0.36484  -9.21647   0.36484  -9.21647
  6.15770   0.37581  -9.19766   0.37581  -9.19766
  6.20776   0.38730  -9.17827   0.38730  -9.17827
  6.25782   0.39930  -9.15828   0.39930  -9.15828
  6.30788   0.41181  -9.13766   0.41181  -9.13766
  6.35795   0.42484  -9.11639   0.42484  -9.11639
  6.40801   0.43837  -9.09445   0.43837  -9.09445
  6.45807   0.45243  -9.07180   0.45243  -9.07180
  6.50814   0.46699  -9.04842   0.46699  -9.04842
  6.55820   0.48207  -9.02429   0.48207  -9.02429
  6.60826   0.49766  -8.99937   0.49766  -8.99937
  6.65832   0.51380  -8.97365   0.51380  -8.97365
  6.70839   0.53045  -8.94709   0.53045  -8.94709
  6.75845   0.54760  -8.91968   0.54760  -8.91968
  6.80851   0.56524  -8.89138   0.56524  -8.89138
  6.85857   0.58337  -8.86218   0.58337  -8.86218
  6.90864   0.60199  -8.83204   0.60199  -8.83204
  6.95870   0.62111  -8.80095   0.62111  -8.80095
  7.00876   0.64204  -8.76880   0.64204  -8.76880
  7.05882   0.66643  -8.73544   0.66643  -8.73544
  7.10889   0.69425  -8.70068   0.69425  -8.70068
  7.15895   0.72659  -8.66431   0.72659  -8.66431
  7.20901   0.76393  -8.62607   0.76393  -8.62607
  7.25907   0.80512  -8.58576   0.80512  -8.58576
  7.30914   0.84752  -8.54333   0.84752  -8.54333
  7.35920   0.89058  -8.49875   0.89058  -8.49875
  7.40926   0.93431  -8.45197   0.93431  -8.45197
  7.45932   0.97871  -8.40297   0.97871  -8.40297
  7.50939   1.02377  -8.35172   1.02377  -8.35172
  7.55945   1.06950  -8.29818   1.06950  -8.29818
  7.60951   1.11590  -8.24231   1.11590  -8.24231
  7.65957   1.16296  -8.18409   1.16296  -8.18409
  7.70964   1.20895  -8.12357   1.20895  -8.12357