ESCALE ; pCOOP file generated by LOBSTER. Energy is shifted such that the Fermi level lies at 0 eV.
         2          1        801  -1.23559e+01   2.76941e+01   9.67159e+00 
Average
No.1:C2->C1(1.5474217615784804)
-22.02753   0.00000   0.00000   0.00000   0.00000
-21.97747   0.00000   0.00000   0.00000   0.00000
-21.92741   0.00000   0.00000   0.00000   0.00000
-21.87735   0.00000   0.00000   0.00000   0.00000
-21.82728   0.00000   0.00000   0.00000   0.00000
-21.77722   0.00000   0.00000   0.00000   0.00000
-21.72716   0.00000   0.00000   0.00000   0.00000
-21.67710   0.00000   0.00000   0.00000   0.00000
-21.62703   0.00000   0.00000   0.00000   0.00000
-21.57697   0.00000   0.00000   0.00000   0.00000
-21.52691   0.00000   0.00000   0.00000   0.00000
-21.47685   0.00000   0.00000   0.00000   0.00000
-21.42678   0.00000   0.00000   0.00000   0.00000
-21.37672   0.00001   0.00000   0.00001   0.00000
-21.32666   0.00007   0.00000   0.00007   0.00000
-21.27660   0.00019   0.00001   0.00019   0.00001
-21.22653   0.00037   0.00003   0.00037   0.00003
-21.17647   0.00061   0.00006   0.00061   0.00006
-21.12641   0.00091   0.00011   0.00091   0.00011
-21.07635   0.00128   0.00017   0.00128   0.00017
-21.02628   0.00170   0.00026   0.00170   0.00026
-20.97622   0.00219   0.00037   0.00219   0.00037
-20.92616   0.00273   0.00050   0.00273   0.00050
-20.87610   0.00334   0.00067   0.00334   0.00067
-20.82603   0.00373   0.00086   0.00373   0.00086
-20.77597   0.00351   0.00103   0.00351   0.00103
-20.72591   0.00338   0.00120   0.00338   0.00120
-20.67584   0.00340   0.00137   0.00340   0.00137
-20.62578   0.00352   0.00155   0.00352   0.00155
-20.57572   0.00367   0.00173   0.00367   0.00173
-20.52566   0.00383   0.00192   0.00383   0.00192
-20.47559   0.00398   0.00212   0.00398   0.00212
-20.42553   0.00414   0.00233   0.00414   0.00233
-20.37547   0.00430   0.00255   0.00430   0.00255
-20.32541   0.00447   0.00277   0.00447   0.00277
-20.27534   0.00463   0.00300   0.00463   0.00300
-20.22528   0.00480   0.00324   0.00480   0.00324
-20.17522   0.00497   0.00349   0.00497   0.00349
-20.12516   0.00515   0.00375   0.00515   0.00375
-20.07509   0.00532   0.00402   0.00532   0.00402
-20.02503   0.00550   0.00429   0.00550   0.00429
-19.97497   0.00568   0.00458   0.00568   0.00458
-19.92491   0.00587   0.00487   0.00587   0.00487
-19.87484   0.00605   0.00517   0.00605   0.00517
-19.82478   0.00622   0.00548   0.00622   0.00548
-19.77472   0.00639   0.00580   0.00639   0.00580
-19.72466   0.00654   0.00613   0.00654   0.00613
-19.67459   0.00668   0.00647   0.00668   0.00647
-19.62453   0.00681   0.00681   0.00681   0.00681
-19.57447   0.00693   0.00715   0.00693   0.00715
-19.52441   0.00704   0.00751   0.00704   0.00751
-19.47434   0.00713   0.00786   0.00713   0.00786
-19.42428   0.00722   0.00822   0.00722   0.00822
-19.37422   0.00730   0.00859   0.00730   0.00859
-19.32416   0.00738   0.00896   0.00738   0.00896
-19.27409   0.00749   0.00933   0.00749   0.00933
-19.22403   0.00761   0.00971   0.00761   0.00971
-19.17397   0.00774   0.01010   0.00774   0.01010
-19.12390   0.00788   0.01050   0.00788   0.01050
-19.07384   0.00801   0.01090   0.00801   0.01090
-19.02378   0.00815   0.01131   0.00815   0.01131
-18.97372   0.00829   0.01172   0.00829   0.01172
-18.92365   0.00843   0.01214   0.00843   0.01214
-18.87359   0.00857   0.01257   0.00857   0.01257
-18.82353   0.00872   0.01301   0.00872   0.01301
-18.77347   0.00886   0.01345   0.00886   0.01345
-18.72340   0.00901   0.01390   0.00901   0.01390
-18.67334   0.00915   0.01436   0.00915   0.01436
-18.62328   0.00930   0.01483   0.00930   0.01483
-18.57322   0.00945   0.01530   0.00945   0.01530
-18.52315   0.00960   0.01578   0.00960   0.01578
-18.47309   0.00975   0.01627   0.00975   0.01627
-18.42303   0.00990   0.01676   0.00990   0.01676
-18.37297   0.01005   0.01727   0.01005   0.01727
-18.32290   0.01020   0.01778   0.01020   0.01778
-18.27284   0.01035   0.01830   0.01035   0.01830
-18.22278   0.01051   0.01882   0.01051   0.01882
-18.17272   0.01067   0.01936   0.01067   0.01936
-18.12265   0.01082   0.01990   0.01082   0.01990
-18.07259   0.01098   0.02045   0.01098   0.02045
-18.02253   0.01114   0.02101   0.01114   0.02101
-17.97247   0.01130   0.02157   0.01130   0.02157
-17.92240   0.01146   0.02214   0.01146   0.02214
-17.87234   0.01161   0.02273   0.01161   0.02273
-17.82228   0.01177   0.02332   0.01177   0.02332
-17.77222   0.01193   0.02391   0.01193   0.02391
-17.72215   0.01211   0.02452   0.01211   0.02452
-17.67209   0.01229   0.02513   0.01229   0.02513
-17.62203   0.01247   0.02576   0.01247   0.02576
-17.57196   0.01265   0.02639   0.01265   0.02639
-17.52190   0.01284   0.02703   0.01284   0.02703
-17.47184   0.01303   0.02769   0.01303   0.02769
-17.42178   0.01323   0.02835   0.01323   0.02835
-17.37171   0.01342   0.02902   0.01342   0.02902
-17.32165   0.01362   0.02970   0.01362   0.02970
-17.27159   0.01383   0.03039   0.01383   0.03039
-17.22153   0.01403   0.03110   0.01403   0.03110
-17.17146   0.01424   0.03181   0.01424   0.03181
-17.12140   0.01445   0.03253   0.01445   0.03253
-17.07134   0.01467   0.03327   0.01467   0.03327
-17.02128   0.01489   0.03401   0.01489   0.03401
-16.97121   0.01512   0.03477   0.01512   0.03477
-16.92115   0.01538   0.03554   0.01538   0.03554
-16.87109   0.01565   0.03632   0.01565   0.03632
-16.82103   0.01594   0.03712   0.01594   0.03712
-16.77096   0.01624   0.03793   0.01624   0.03793
-16.72090   0.01657   0.03876   0.01657   0.03876
-16.67084   0.01691   0.03961   0.01691   0.03961
-16.62078   0.01728   0.04048   0.01728   0.04048
-16.57071   0.01780   0.04137   0.01780   0.04137
-16.52065   0.01844   0.04229   0.01844   0.04229
-16.47059   0.01903   0.04324   0.01903   0.04324
-16.42053   0.01959   0.04422   0.01959   0.04422
-16.37046   0.02011   0.04523   0.02011   0.04523
-16.32040   0.02059   0.04626   0.02059   0.04626
-16.27034   0.02102   0.04731   0.02102   0.04731
-16.22028   0.02142   0.04839   0.02142   0.04839
-16.17021   0.02178   0.04948   0.02178   0.04948
-16.12015   0.02209   0.05058   0.02209   0.05058
-16.07009   0.02237   0.05170   0.02237   0.05170
-16.02003   0.02261   0.05283   0.02261   0.05283
-15.96996   0.02280   0.05398   0.02280   0.05398
-15.91990   0.02296   0.05512   0.02296   0.05512
-15.86984   0.02308   0.05628   0.02308   0.05628
-15.81977   0.02315   0.05744   0.02315   0.05744
-15.76971   0.02319   0.05860   0.02319   0.05860
-15.71965   0.02318   0.05976   0.02318   0.05976
-15.66959   0.02316   0.06092   0.02316   0.06092
-15.61952   0.02317   0.06208   0.02317   0.06208
-15.56946   0.02323   0.06324   0.02323   0.06324
-15.51940   0.02335   0.06441   0.02335   0.06441
-15.46934   0.02351   0.06559   0.02351   0.06559
-15.41927   0.02373   0.06678   0.02373   0.06678
-15.36921   0.02528   0.06804   0.02528   0.06804
-15.31915   0.03766   0.06993   0.03766   0.06993
-15.26909   0.03786   0.07182   0.03786   0.07182
-15.21902   0.02719   0.07318   0.02719   0.07318
-15.16896   0.02602   0.07449   0.02602   0.07449
-15.11890   0.02552   0.07576   0.02552   0.07576
-15.06884   0.02505   0.07702   0.02505   0.07702
-15.01877   0.02459   0.07825   0.02459   0.07825
-14.96871   0.02416   0.07946   0.02416   0.07946
-14.91865   0.02375   0.08065   0.02375   0.08065
-14.86859   0.02339   0.08182   0.02339   0.08182
-14.81852   0.02306   0.08297   0.02306   0.08297
-14.76846   0.02275   0.08411   0.02275   0.08411
-14.71840   0.02247   0.08524   0.02247   0.08524
-14.66834   0.02220   0.08635   0.02220   0.08635
-14.61827   0.02195   0.08745   0.02195   0.08745
-14.56821   0.02171   0.08853   0.02171   0.08853
-14.51815   0.02150   0.08961   0.02150   0.08961
-14.46809   0.02131   0.09068   0.02131   0.09068
-14.41802   0.02113   0.09173   0.02113   0.09173
-14.36796   0.02098   0.09278   0.02098   0.09278
-14.31790   0.02085   0.09383   0.02085   0.09383
-14.26783   0.02102   0.09488   0.02102   0.09488
-14.21777   0.02128   0.09595   0.02128   0.09595
-14.16771   0.02148   0.09702   0.02148   0.09702
-14.11765   0.02163   0.09810   0.02163   0.09810
-14.06758   0.02172   0.09919   0.02172   0.09919
-14.01752   0.02178   0.10028   0.02178   0.10028
-13.96746   0.02182   0.10137   0.02182   0.10137
-13.91740   0.02178   0.10246   0.02178   0.10246
-13.86733   0.02168   0.10355   0.02168   0.10355
-13.81727   0.02151   0.10463   0.02151   0.10463
-13.76721   0.02127   0.10569   0.02127   0.10569
-13.71715   0.02096   0.10674   0.02096   0.10674
-13.66708   0.02059   0.10777   0.02059   0.10777
-13.61702   0.02014   0.10878   0.02014   0.10878
-13.56696   0.01962   0.10976   0.01962   0.10976
-13.51690   0.01904   0.11072   0.01904   0.11072
-13.46683   0.01839   0.11164   0.01839   0.11164
-13.41677   0.01767   0.11252   0.01767   0.11252
-13.36671   0.01687   0.11337   0.01687   0.11337
-13.31665   0.01601   0.11417   0.01601   0.11417
-13.26658   0.01509   0.11492   0.01509   0.11492
-13.21652   0.01409   0.11563   0.01409   0.11563
-13.16646   0.01302   0.11628   0.01302   0.11628
-13.11640   0.01189   0.11688   0.01189   0.11688
-13.06633   0.01068   0.11741   0.01068   0.11741
-13.01627   0.00941   0.11788   0.00941   0.11788
-12.96621   0.01381   0.11857   0.01381   0.11857
-12.91615   0.00330   0.11874   0.00330   0.11874
-12.86608   0.00244   0.11886   0.00244   0.11886
-12.81602   0.00170   0.11895   0.00170   0.11895
-12.76596   0.00108   0.11900   0.00108   0.11900
-12.71589   0.00058   0.11903   0.00058   0.11903
-12.66583   0.00112   0.11908   0.00112   0.11908
-12.61577   0.00292   0.11923   0.00292   0.11923
-12.56571   0.00464   0.11946   0.00464   0.11946
-12.51564   0.00609   0.11977   0.00609   0.11977
-12.46558   0.00726   0.12013   0.00726   0.12013
-12.41552   0.00815   0.12054   0.00815   0.12054
-12.36546   0.00887   0.12098   0.00887   0.12098
-12.31539   0.00951   0.12146   0.00951   0.12146
-12.26533   0.00995   0.12196   0.00995   0.12196
-12.21527   0.01018   0.12247   0.01018   0.12247
-12.16521   0.01021   0.12298   0.01021   0.12298
-12.11514   0.01070   0.12351   0.01070   0.12351
-12.06508   0.01188   0.12411   0.01188   0.12411
-12.01502   0.01316   0.12477   0.01316   0.12477
-11.96496   0.01452   0.12549   0.01452   0.12549
-11.91489   0.01598   0.12629   0.01598   0.12629
-11.86483   0.01753   0.12717   0.01753   0.12717
-11.81477   0.01918   0.12813   0.01918   0.12813
-11.76471   0.02091   0.12918   0.02091   0.12918
-11.71464   0.02274   0.13032   0.02274   0.13032
-11.66458   0.02466   0.13155   0.02466   0.13155
-11.61452   0.02645   0.13288   0.02645   0.13288
-11.56446   0.02771   0.13426   0.02771   0.13426
-11.51439   0.02938   0.13573   0.02938   0.13573
-11.46433   0.03154   0.13731   0.03154   0.13731
-11.41427   0.03418   0.13903   0.03418   0.13903
-11.36421   0.03731   0.14089   0.03731   0.14089
-11.31414   0.05331   0.14356   0.05331   0.14356
-11.26408   0.05552   0.14634   0.05552   0.14634
-11.21402   0.06169   0.14943   0.06169   0.14943
-11.16395   0.06496   0.15268   0.06496   0.15268
-11.11389   0.06533   0.15595   0.06533   0.15595
-11.06383   0.06281   0.15910   0.06281   0.15910
-11.01377   0.05739   0.16197   0.05739   0.16197
-10.96370   0.05018   0.16448   0.05018   0.16448
-10.91364   0.04620   0.16680   0.04620   0.16680
-10.86358   0.04291   0.16894   0.04291   0.16894
-10.81352   0.03982   0.17094   0.03982   0.17094
-10.76345   0.03694   0.17279   0.03694   0.17279
-10.71339   0.03426   0.17450   0.03426   0.17450
-10.66333   0.03179   0.17609   0.03179   0.17609
-10.61327   0.02953   0.17757   0.02953   0.17757
-10.56320   0.02748   0.17895   0.02748   0.17895
-10.51314   0.02563   0.18023   0.02563   0.18023
-10.46308   0.02399   0.18143   0.02399   0.18143
-10.41302   0.02256   0.18256   0.02256   0.18256
-10.36295   0.02144   0.18363   0.02144   0.18363
-10.31289   0.02091   0.18468   0.02091   0.18468
-10.26283   0.02046   0.18571   0.02046   0.18571
-10.21277   0.02004   0.18671   0.02004   0.18671
-10.16270   0.01964   0.18769   0.01964   0.18769
-10.11264   0.01926   0.18866   0.01926   0.18866
-10.06258   0.01891   0.18960   0.01891   0.18960
-10.01252   0.01858   0.19053   0.01858   0.19053
 -9.96245   0.01828   0.19145   0.01828   0.19145
 -9.91239   0.01800   0.19235   0.01800   0.19235
 -9.86233   0.01774   0.19324   0.01774   0.19324
 -9.81227   0.01751   0.19412   0.01751   0.19412
 -9.76220   0.01730   0.19498   0.01730   0.19498
 -9.71214   0.01712   0.19584   0.01712   0.19584
 -9.66208   0.01695   0.19669   0.01695   0.19669
 -9.61202   0.01678   0.19753   0.01678   0.19753
 -9.56195   0.01663   0.19836   0.01663   0.19836
 -9.51189   0.01649   0.19919   0.01649   0.19919
 -9.46183   0.01635   0.20000   0.01635   0.20000
 -9.41176   0.01623   0.20082   0.01623   0.20082
 -9.36170   0.01611   0.20162   0.01611   0.20162
 -9.31164   0.01601   0.20242   0.01601   0.20242
 -9.26158   0.01591   0.20322   0.01591   0.20322
 -9.21151   0.01582   0.20401   0.01582   0.20401
 -9.16145   0.01574   0.20480   0.01574   0.20480
 -9.11139   0.02161   0.20588   0.02161   0.20588
 -9.06133   0.01813   0.20679   0.01813   0.20679
 -9.01126   0.01845   0.20771   0.01845   0.20771
 -8.96120   0.01879   0.20865   0.01879   0.20865
 -8.91114   0.01903   0.20961   0.01903   0.20961
 -8.86108   0.01938   0.21058   0.01938   0.21058
 -8.81101   0.01987   0.21157   0.01987   0.21157
 -8.76095   0.02048   0.21260   0.02048   0.21260
 -8.71089   0.02122   0.21366   0.02122   0.21366
 -8.66083   0.02208   0.21477   0.02208   0.21477
 -8.61076   0.02305   0.21592   0.02305   0.21592
 -8.56070   0.02415   0.21713   0.02415   0.21713
 -8.51064   0.02538   0.21840   0.02538   0.21840
 -8.46058   0.02661   0.21973   0.02661   0.21973
 -8.41051   0.02769   0.22112   0.02769   0.22112
 -8.36045   0.02860   0.22255   0.02860   0.22255
 -8.31039   0.02935   0.22402   0.02935   0.22402
 -8.26033   0.02993   0.22552   0.02993   0.22552
 -8.21026   0.03035   0.22704   0.03035   0.22704
 -8.16020   0.03060   0.22857   0.03060   0.22857
 -8.11014   0.03063   0.23010   0.03063   0.23010
 -8.06008   0.03035   0.23162   0.03035   0.23162
 -8.01001   0.03010   0.23313   0.03010   0.23313
 -7.95995   0.02993   0.23463   0.02993   0.23463
 -7.90989   0.02984   0.23612   0.02984   0.23612
 -7.85982   0.02982   0.23761   0.02982   0.23761
 -7.80976   0.03065   0.23915   0.03065   0.23915
 -7.75970   0.03326   0.24081   0.03326   0.24081
 -7.70964   0.03488   0.24256   0.03488   0.24256
 -7.65957   0.03531   0.24433   0.03531   0.24433
 -7.60951   0.03455   0.24606   0.03455   0.24606
 -7.55945   0.03262   0.24769   0.03262   0.24769
 -7.50939   0.03055   0.24922   0.03055   0.24922
 -7.45932   0.03047   0.25074   0.03047   0.25074
 -7.40926   0.03053   0.25227   0.03053   0.25227
 -7.35920   0.03063   0.25381   0.03063   0.25381
 -7.30914   0.03078   0.25535   0.03078   0.25535
 -7.25907   0.03097   0.25690   0.03097   0.25690
 -7.20901   0.03119   0.25846   0.03119   0.25846
 -7.15895   0.03146   0.26003   0.03146   0.26003
 -7.10889   0.03177   0.26162   0.03177   0.26162
 -7.05882   0.03212   0.26323   0.03212   0.26323
 -7.00876   0.03251   0.26486   0.03251   0.26486
 -6.95870   0.03278   0.26650   0.03278   0.26650
 -6.90864   0.03242   0.26812   0.03242   0.26812
 -6.85857   0.03262   0.26976   0.03262   0.26976
 -6.80851   0.03575   0.27155   0.03575   0.27155
 -6.75845   0.03931   0.27351   0.03931   0.27351
 -6.70839   0.04293   0.27566   0.04293   0.27566
 -6.65832   0.04662   0.27800   0.04662   0.27800
 -6.60826   0.05036   0.28052   0.05036   0.28052
 -6.55820   0.05490   0.28327   0.05490   0.28327
 -6.50814   0.04182   0.28536   0.04182   0.28536
 -6.45807   0.04223   0.28747   0.04223   0.28747
 -6.40801   0.04269   0.28961   0.04269   0.28961
 -6.35795   0.04319   0.29177   0.04319   0.29177
 -6.30788   0.04345   0.29395   0.04345   0.29395
 -6.25782   0.04375   0.29614   0.04375   0.29614
 -6.20776   0.04455   0.29837   0.04455   0.29837
 -6.15770   0.04549   0.30065   0.04549   0.30065
 -6.10763   0.04656   0.30298   0.04656   0.30298
 -6.05757   0.05146   0.30555   0.05146   0.30555
 -6.00751   0.05352   0.30823   0.05352   0.30823
 -5.95745   0.04568   0.31052   0.04568   0.31052
 -5.90738   0.04276   0.31266   0.04276   0.31266
 -5.85732   0.04216   0.31477   0.04216   0.31477
 -5.80726   0.04162   0.31685   0.04162   0.31685
 -5.75720   0.04116   0.31891   0.04116   0.31891
 -5.70713   0.04075   0.32095   0.04075   0.32095
 -5.65707   0.04042   0.32298   0.04042   0.32298
 -5.60701   0.04014   0.32499   0.04014   0.32499
 -5.55695   0.03990   0.32699   0.03990   0.32699
 -5.50688   0.03965   0.32897   0.03965   0.32897
 -5.45682   0.03941   0.33094   0.03941   0.33094
 -5.40676   0.03916   0.33290   0.03916   0.33290
 -5.35670   0.03892   0.33485   0.03892   0.33485
 -5.30663   0.03867   0.33679   0.03867   0.33679
 -5.25657   0.03840   0.33871   0.03840   0.33871
 -5.20651   0.03801   0.34061   0.03801   0.34061
 -5.15645   0.03769   0.34250   0.03769   0.34250
 -5.10638   0.03747   0.34438   0.03747   0.34438
 -5.05632   0.03733   0.34625   0.03733   0.34625
 -5.00626   0.03729   0.34811   0.03729   0.34811
 -4.95620   0.03730   0.34998   0.03730   0.34998
 -4.90613   0.03690   0.35183   0.03690   0.35183
 -4.85607   0.03639   0.35365   0.03639   0.35365
 -4.80601   0.03569   0.35544   0.03569   0.35544
 -4.75594   0.03495   0.35719   0.03495   0.35719
 -4.70588   0.03422   0.35890   0.03422   0.35890
 -4.65582   0.03349   0.36058   0.03349   0.36058
 -4.60576   0.03277   0.36222   0.03277   0.36222
 -4.55569   0.03204   0.36382   0.03204   0.36382
 -4.50563   0.03131   0.36539   0.03131   0.36539
 -4.45557   0.03058   0.36692   0.03058   0.36692
 -4.40551   0.02985   0.36841   0.02985   0.36841
 -4.35544   0.02912   0.36987   0.02912   0.36987
 -4.30538   0.02838   0.37129   0.02838   0.37129
 -4.25532   0.02765   0.37268   0.02765   0.37268
 -4.20526   0.02691   0.37402   0.02691   0.37402
 -4.15519   0.02617   0.37533   0.02617   0.37533
 -4.10513   0.02542   0.37661   0.02542   0.37661
 -4.05507   0.02468   0.37784   0.02468   0.37784
 -4.00501   0.02393   0.37904   0.02393   0.37904
 -3.95494   0.02318   0.38020   0.02318   0.38020
 -3.90488   0.02244   0.38132   0.02244   0.38132
 -3.85482   0.02170   0.38241   0.02170   0.38241
 -3.80476   0.02098   0.38346   0.02098   0.38346
 -3.75469   0.02030   0.38448   0.02030   0.38448
 -3.70463   0.01980   0.38547   0.01980   0.38547
 -3.65457   0.01955   0.38645   0.01955   0.38645
 -3.60451   0.01954   0.38742   0.01954   0.38742
 -3.55444   0.01979   0.38842   0.01979   0.38842
 -3.50438   0.02027   0.38943   0.02027   0.38943
 -3.45432   0.02100   0.39048   0.02100   0.39048
 -3.40426   0.02194   0.39158   0.02194   0.39158
 -3.35419   0.02231   0.39270   0.02231   0.39270
 -3.30413   0.02232   0.39381   0.02232   0.39381
 -3.25407   0.02197   0.39491   0.02197   0.39491
 -3.20401   0.02146   0.39599   0.02146   0.39599
 -3.15394   0.02084   0.39703   0.02084   0.39703
 -3.10388   0.02013   0.39804   0.02013   0.39804
 -3.05382   0.01932   0.39901   0.01932   0.39901
 -3.00375   0.01841   0.39993   0.01841   0.39993
 -2.95369   0.01735   0.40080   0.01735   0.40080
 -2.90363   0.01607   0.40160   0.01607   0.40160
 -2.85357   0.01469   0.40234   0.01469   0.40234
 -2.80350   0.01323   0.40300   0.01323   0.40300
 -2.75344   0.01168   0.40358   0.01168   0.40358
 -2.70338   0.01013   0.40409   0.01013   0.40409
 -2.65332   0.00937   0.40456   0.00937   0.40456
 -2.60325   0.00880   0.40500   0.00880   0.40500
 -2.55319   0.00814   0.40541   0.00814   0.40541
 -2.50313   0.00740   0.40578   0.00740   0.40578
 -2.45307   0.00656   0.40611   0.00656   0.40611
 -2.40300   0.00565   0.40639   0.00565   0.40639
 -2.35294   0.00464   0.40662   0.00464   0.40662
 -2.30288   0.00356   0.40680   0.00356   0.40680
 -2.25282   0.00256   0.40693   0.00256   0.40693
 -2.20275   0.00178   0.40702   0.00178   0.40702
 -2.15269   0.00121   0.40708   0.00121   0.40708
 -2.10263   0.00085   0.40712   0.00085   0.40712
 -2.05257   0.00070   0.40716   0.00070   0.40716
 -2.00250   0.00073   0.40719   0.00073   0.40719
 -1.95244   0.00083   0.40723   0.00083   0.40723
 -1.90238   0.00093   0.40728   0.00093   0.40728
 -1.85232   0.00100   0.40733   0.00100   0.40733
 -1.80225   0.00105   0.40738   0.00105   0.40738
 -1.75219   0.00108   0.40744   0.00108   0.40744
 -1.70213   0.00110   0.40749   0.00110   0.40749
 -1.65207   0.00111   0.40755   0.00111   0.40755
 -1.60200   0.00112   0.40760   0.00112   0.40760
 -1.55194   0.00113   0.40766   0.00113   0.40766
 -1.50188   0.00115   0.40772   0.00115   0.40772
 -1.45181   0.00117   0.40778   0.00117   0.40778
 -1.40175   0.00119   0.40784   0.00119   0.40784
 -1.35169   0.00122   0.40790   0.00122   0.40790
 -1.30163   0.00126   0.40796   0.00126   0.40796
 -1.25156   0.00129   0.40802   0.00129   0.40802
 -1.20150   0.00134   0.40809   0.00134   0.40809
 -1.15144   0.00138   0.40816   0.00138   0.40816
 -1.10138   0.00143   0.40823   0.00143   0.40823
 -1.05131   0.00149   0.40831   0.00149   0.40831
 -1.00125   0.00154   0.40838   0.00154   0.40838
 -0.95119   0.00149   0.40846   0.00149   0.40846
 -0.90113   0.00116   0.40852   0.00116   0.40852
 -0.85106   0.00054   0.40854   0.00054   0.40854
 -0.80100  -0.00018   0.40853  -0.00018   0.40853
 -0.75094  -0.00024   0.40852  -0.00024   0.40852
 -0.70088  -0.00021   0.40851  -0.00021   0.40851
 -0.65081  -0.00018   0.40850  -0.00018   0.40850
 -0.60075  -0.00015   0.40849  -0.00015   0.40849
 -0.55069  -0.00013   0.40849  -0.00013   0.40849
 -0.50063  -0.00011   0.40848  -0.00011   0.40848
 -0.45056  -0.00009   0.40848  -0.00009   0.40848
 -0.40050  -0.00007   0.40848  -0.00007   0.40848
 -0.35044  -0.00005   0.40847  -0.00005   0.40847
 -0.30038  -0.00004   0.40847  -0.00004   0.40847
 -0.25031  -0.00003   0.40847  -0.00003   0.40847
 -0.20025  -0.00002   0.40847  -0.00002   0.40847
 -0.15019  -0.00001   0.40847  -0.00001   0.40847
 -0.10013  -0.00000   0.40847  -0.00000   0.40847
 -0.05006  -0.00000   0.40847  -0.00000   0.40847
 -0.00000  -0.00000   0.40847  -0.00000   0.40847
  0.05006   0.00000   0.40847   0.00000   0.40847
  0.10013   0.00000   0.40847   0.00000   0.40847
  0.15019   0.00000   0.40847   0.00000   0.40847
  0.20025   0.00000   0.40847   0.00000   0.40847
  0.25031   0.00000   0.40847   0.00000   0.40847
  0.30038   0.00000   0.40847   0.00000   0.40847
  0.35044   0.00000   0.40847   0.00000   0.40847
  0.40050   0.00000   0.40847   0.00000   0.40847
  0.45056   0.00000   0.40847   0.00000   0.40847
  0.50063   0.00000   0.40847   0.00000   0.40847
  0.55069   0.00000   0.40847   0.00000   0.40847
  0.60075   0.00000   0.40847   0.00000   0.40847
  0.65081   0.00000   0.40847   0.00000   0.40847
  0.70088   0.00000   0.40847   0.00000   0.40847
  0.75094   0.00000   0.40847   0.00000   0.40847
  0.80100   0.00000   0.40847   0.00000   0.40847
  0.85106   0.00000   0.40847   0.00000   0.40847
  0.90113   0.00000   0.40847   0.00000   0.40847
  0.95119   0.00000   0.40847   0.00000   0.40847
  1.00125   0.00000   0.40847   0.00000   0.40847
  1.05131   0.00000   0.40847   0.00000   0.40847
  1.10138   0.00000   0.40847   0.00000   0.40847
  1.15144   0.00000   0.40847   0.00000   0.40847
  1.20150   0.00000   0.40847   0.00000   0.40847
  1.25156   0.00000   0.40847   0.00000   0.40847
  1.30163   0.00000   0.40847   0.00000   0.40847
  1.35169   0.00000   0.40847   0.00000   0.40847
  1.40175   0.00000   0.40847   0.00000   0.40847
  1.45181   0.00000   0.40847   0.00000   0.40847
  1.50188   0.00000   0.40847   0.00000   0.40847
  1.55194   0.00000   0.40847   0.00000   0.40847
  1.60200   0.00000   0.40847   0.00000   0.40847
  1.65207   0.00000   0.40847   0.00000   0.40847
  1.70213   0.00000   0.40847   0.00000   0.40847
  1.75219   0.00000   0.40847   0.00000   0.40847
  1.80225   0.00000   0.40847   0.00000   0.40847
  1.85232   0.00000   0.40847   0.00000   0.40847
  1.90238   0.00000   0.40847   0.00000   0.40847
  1.95244   0.00000   0.40847   0.00000   0.40847
  2.00250   0.00000   0.40847   0.00000   0.40847
  2.05257   0.00000   0.40847   0.00000   0.40847
  2.10263   0.00000   0.40847   0.00000   0.40847
  2.15269   0.00000   0.40847   0.00000   0.40847
  2.20275   0.00000   0.40847   0.00000   0.40847
  2.25282   0.00000   0.40847   0.00000   0.40847
  2.30288   0.00000   0.40847   0.00000   0.40847
  2.35294   0.00000   0.40847   0.00000   0.40847
  2.40300   0.00000   0.40847   0.00000   0.40847
  2.45307   0.00000   0.40847   0.00000   0.40847
  2.50313   0.00000   0.40847   0.00000   0.40847
  2.55319   0.00000   0.40847   0.00000   0.40847
  2.60325   0.00000   0.40847   0.00000   0.40847
  2.65332   0.00000   0.40847   0.00000   0.40847
  2.70338   0.00000   0.40847   0.00000   0.40847
  2.75344   0.00000   0.40847   0.00000   0.40847
  2.80350   0.00000   0.40847   0.00000   0.40847
  2.85357   0.00000   0.40847   0.00000   0.40847
  2.90363   0.00000   0.40847   0.00000   0.40847
  2.95369   0.00000   0.40847   0.00000   0.40847
  3.00375   0.00000   0.40847   0.00000   0.40847
  3.05382   0.00000   0.40847   0.00000   0.40847
  3.10388   0.00000   0.40847   0.00000   0.40847
  3.15394   0.00000   0.40847   0.00000   0.40847
  3.20401   0.00000   0.40847   0.00000   0.40847
  3.25407   0.00000   0.40847   0.00000   0.40847
  3.30413   0.00000   0.40847   0.00000   0.40847
  3.35419   0.00000   0.40847   0.00000   0.40847
  3.40426   0.00000   0.40847   0.00000   0.40847
  3.45432   0.00000   0.40847   0.00000   0.40847
  3.50438   0.00000   0.40847   0.00000   0.40847
  3.55444   0.00000   0.40847   0.00000   0.40847
  3.60451   0.00000   0.40847   0.00000   0.40847
  3.65457   0.00000   0.40847   0.00000   0.40847
  3.70463   0.00000   0.40847   0.00000   0.40847
  3.75469   0.00000   0.40847   0.00000   0.40847
  3.80476   0.00000   0.40847   0.00000   0.40847
  3.85482   0.00000   0.40847   0.00000   0.40847
  3.90488   0.00000   0.40847   0.00000   0.40847
  3.95494   0.00000   0.40847   0.00000   0.40847
  4.00501   0.00000   0.40847   0.00000   0.40847
  4.05507   0.00000   0.40847   0.00000   0.40847
  4.10513   0.00000   0.40847   0.00000   0.40847
  4.15519   0.00000   0.40847   0.00000   0.40847
  4.20526   0.00000   0.40847   0.00000   0.40847
  4.25532  -0.00048   0.40844  -0.00048   0.40844
  4.30538  -0.00336   0.40828  -0.00336   0.40828
  4.35544  -0.00652   0.40795  -0.00652   0.40795
  4.40551  -0.00953   0.40747  -0.00953   0.40747
  4.45557  -0.01240   0.40685  -0.01240   0.40685
  4.50563  -0.01512   0.40609  -0.01512   0.40609
  4.55569  -0.01770   0.40521  -0.01770   0.40521
  4.60576  -0.02013   0.40420  -0.02013   0.40420
  4.65582  -0.02242   0.40308  -0.02242   0.40308
  4.70588  -0.02457   0.40185  -0.02457   0.40185
  4.75594  -0.02657   0.40052  -0.02657   0.40052
  4.80601  -0.02843   0.39909  -0.02843   0.39909
  4.85607  -0.03014   0.39758  -0.03014   0.39758
  4.90613  -0.03171   0.39600  -0.03171   0.39600
  4.95620  -0.03314   0.39434  -0.03314   0.39434
  5.00626  -0.03442   0.39262  -0.03442   0.39262
  5.05632  -0.03568   0.39083  -0.03568   0.39083
  5.10638  -0.03724   0.38896  -0.03724   0.38896
  5.15645  -0.03868   0.38703  -0.03868   0.38703
  5.20651  -0.03999   0.38503  -0.03999   0.38503
  5.25657  -0.04139   0.38295  -0.04139   0.38295
  5.30663  -0.04271   0.38082  -0.04271   0.38082
  5.35670  -0.04393   0.37862  -0.04393   0.37862
  5.40676  -0.04504   0.37636  -0.04504   0.37636
  5.45682  -0.04605   0.37406  -0.04605   0.37406
  5.50688  -0.04695   0.37171  -0.04695   0.37171
  5.55695  -0.04774   0.36932  -0.04774   0.36932
  5.60701  -0.04846   0.36689  -0.04846   0.36689
  5.65707  -0.04920   0.36443  -0.04920   0.36443
  5.70713  -0.05041   0.36190  -0.05041   0.36190
  5.75720  -0.05208   0.35930  -0.05208   0.35930
  5.80726  -0.05381   0.35660  -0.05381   0.35660
  5.85732  -0.05561   0.35382  -0.05561   0.35382
  5.90738  -0.05749   0.35094  -0.05749   0.35094
  5.95745  -0.05952   0.34796  -0.05952   0.34796
  6.00751  -0.06165   0.34487  -0.06165   0.34487
  6.05757  -0.06387   0.34168  -0.06387   0.34168
  6.10763  -0.06606   0.33837  -0.06606   0.33837
  6.15770  -0.06832   0.33495  -0.06832   0.33495
  6.20776  -0.07075   0.33141  -0.07075   0.33141
  6.25782  -0.07334   0.32774  -0.07334   0.32774
  6.30788  -0.07611   0.32393  -0.07611   0.32393
  6.35795  -0.07904   0.31997  -0.07904   0.31997
  6.40801  -0.08213   0.31586  -0.08213   0.31586
  6.45807  -0.08539   0.31158  -0.08539   0.31158
  6.50814  -0.08882   0.30714  -0.08882   0.30714
  6.55820  -0.09242   0.30251  -0.09242   0.30251
  6.60826  -0.09618   0.29769  -0.09618   0.29769
  6.65832  -0.10055   0.29266  -0.10055   0.29266
  6.70839  -0.10537   0.28739  -0.10537   0.28739
  6.75845  -0.11025   0.28187  -0.11025   0.28187
  6.80851  -0.11518   0.27610  -0.11518   0.27610
  6.85857  -0.12017   0.27008  -0.12017   0.27008
  6.90864  -0.12521   0.26382  -0.12521   0.26382
  6.95870  -0.13030   0.25729  -0.13030   0.25729
  7.00876  -0.13574   0.25050  -0.13574   0.25050
  7.05882  -0.14187   0.24339  -0.14187   0.24339
  7.10889  -0.14879   0.23595  -0.14879   0.23595
  7.15895  -0.15672   0.22810  -0.15672   0.22810
  7.20901  -0.16567   0.21981  -0.16567   0.21981
  7.25907  -0.17536   0.21103  -0.17536   0.21103
  7.30914  -0.18524   0.20175  -0.18524   0.20175
  7.35920  -0.19519   0.19198  -0.19519   0.19198
  7.40926  -0.20523   0.18171  -0.20523   0.18171
  7.45932  -0.21534   0.17093  -0.21534   0.17093
  7.50939  -0.22553   0.15964  -0.22553   0.15964
  7.55945  -0.23580   0.14783  -0.23580   0.14783
  7.60951  -0.24614   0.13551  -0.24614   0.13551
  7.65957  -0.25657   0.12266  -0.25657   0.12266
  7.70964  -0.26672   0.10931  -0.26672   0.10931