   2    2    1    1
  1.1409437e+01   2.5269292e-10   2.5269292e-10   2.5269292e-10   5.0000000e-16
            1.000000e-04
  CAR
 DOS and projected DOS file by LOBSTER. Energy is shifted such that the Fermi level lies at 0 eV. 
     27.69411885     -12.35594373   801       9.67159069       1.00000000
-22.02753   0.00000   0.00000
-21.97747   0.00000   0.00000
-21.92741   0.00000   0.00000
-21.87735   0.00000   0.00000
-21.82728   0.00000   0.00000
-21.77722   0.00000   0.00000
-21.72716   0.00000   0.00000
-21.67710   0.00000   0.00000
-21.62703   0.00000   0.00000
-21.57697   0.00000   0.00000
-21.52691   0.00000   0.00000
-21.47685   0.00000   0.00000
-21.42678   0.00000   0.00000
-21.37672   0.00022   0.00001
-21.32666   0.00164   0.00009
-21.27660   0.00455   0.00032
-21.22653   0.00894   0.00077
-21.17647   0.01482   0.00151
-21.12641   0.02219   0.00262
-21.07635   0.03104   0.00418
-21.02628   0.04138   0.00625
-20.97622   0.05320   0.00891
-20.92616   0.06651   0.01224
-20.87610   0.08130   0.01631
-20.82603   0.09049   0.02084
-20.77597   0.08425   0.02506
-20.72591   0.08057   0.02909
-20.67584   0.08034   0.03311
-20.62578   0.08299   0.03727
-20.57572   0.08625   0.04159
-20.52566   0.08956   0.04607
-20.47559   0.09292   0.05072
-20.42553   0.09634   0.05554
-20.37547   0.09980   0.06054
-20.32541   0.10332   0.06571
-20.27534   0.10689   0.07106
-20.22528   0.11051   0.07660
-20.17522   0.11418   0.08231
-20.12516   0.11791   0.08821
-20.07509   0.12168   0.09431
-20.02503   0.12551   0.10059
-19.97497   0.12939   0.10707
-19.92491   0.13332   0.11374
-19.87484   0.13719   0.12061
-19.82478   0.14076   0.12766
-19.77472   0.14399   0.13486
-19.72466   0.14687   0.14222
-19.67459   0.14942   0.14970
-19.62453   0.15163   0.15729
-19.57447   0.15351   0.16497
-19.52441   0.15504   0.17274
-19.47434   0.15623   0.18056
-19.42428   0.15708   0.18842
-19.37422   0.15761   0.19631
-19.32416   0.15847   0.20424
-19.27409   0.15989   0.21225
-19.22403   0.16165   0.22034
-19.17397   0.16375   0.22854
-19.12390   0.16602   0.23685
-19.07384   0.16830   0.24528
-19.02378   0.17059   0.25382
-18.97372   0.17290   0.26247
-18.92365   0.17522   0.27124
-18.87359   0.17755   0.28013
-18.82353   0.17989   0.28914
-18.77347   0.18225   0.29826
-18.72340   0.18461   0.30750
-18.67334   0.18699   0.31687
-18.62328   0.18939   0.32635
-18.57322   0.19179   0.33595
-18.52315   0.19421   0.34567
-18.47309   0.19664   0.35552
-18.42303   0.19909   0.36548
-18.37297   0.20155   0.37557
-18.32290   0.20402   0.38579
-18.27284   0.20651   0.39613
-18.22278   0.20902   0.40659
-18.17272   0.21154   0.41718
-18.12265   0.21408   0.42790
-18.07259   0.21663   0.43874
-18.02253   0.21920   0.44972
-17.97247   0.22178   0.46082
-17.92240   0.22423   0.47204
-17.87234   0.22543   0.48333
-17.82228   0.22667   0.49468
-17.77222   0.22830   0.50611
-17.72215   0.23030   0.51764
-17.67209   0.23247   0.52927
-17.62203   0.23467   0.54102
-17.57196   0.23690   0.55288
-17.52190   0.23915   0.56485
-17.47184   0.24143   0.57694
-17.42178   0.24375   0.58914
-17.37171   0.24609   0.60146
-17.32165   0.24845   0.61390
-17.27159   0.25085   0.62646
-17.22153   0.25327   0.63914
-17.17146   0.25572   0.65194
-17.12140   0.25820   0.66487
-17.07134   0.26071   0.67792
-17.02128   0.26330   0.69110
-16.97121   0.26613   0.70442
-16.92115   0.26926   0.71790
-16.87109   0.27268   0.73155
-16.82103   0.27638   0.74539
-16.77096   0.28038   0.75943
-16.72090   0.28467   0.77368
-16.67084   0.28925   0.78816
-16.62078   0.29412   0.80288
-16.57071   0.30155   0.81798
-16.52065   0.31067   0.83353
-16.47059   0.31920   0.84951
-16.42053   0.32716   0.86589
-16.37046   0.33449   0.88264
-16.32040   0.34120   0.89972
-16.27034   0.34729   0.91710
-16.22028   0.35275   0.93476
-16.17021   0.35758   0.95267
-16.12015   0.36179   0.97078
-16.07009   0.36537   0.98907
-16.02003   0.36833   1.00751
-15.96996   0.37066   1.02606
-15.91990   0.37236   1.04471
-15.86984   0.37344   1.06340
-15.81977   0.37390   1.08212
-15.76971   0.37373   1.10083
-15.71965   0.37293   1.11950
-15.66959   0.37175   1.13811
-15.61952   0.37095   1.15668
-15.56946   0.37066   1.17524
-15.51940   0.37089   1.19380
-15.46934   0.37164   1.21241
-15.41927   0.37291   1.23108
-15.36921   0.39387   1.25080
-15.31915   0.57477   1.27957
-15.26909   0.57474   1.30834
-15.21902   0.41414   1.32908
-15.16896   0.39582   1.34889
-15.11890   0.38751   1.36829
-15.06884   0.37955   1.38729
-15.01877   0.37192   1.40591
-14.96871   0.36465   1.42417
-14.91865   0.35771   1.44208
-14.86859   0.35152   1.45967
-14.81852   0.34590   1.47699
-14.76846   0.34058   1.49404
-14.71840   0.33555   1.51084
-14.66834   0.33082   1.52740
-14.61827   0.32638   1.54374
-14.56821   0.32223   1.55987
-14.51815   0.31839   1.57581
-14.46809   0.31483   1.59157
-14.41802   0.31157   1.60717
-14.36796   0.30861   1.62262
-14.31790   0.30610   1.63794
-14.26783   0.30790   1.65336
-14.21777   0.31099   1.66893
-14.16771   0.31334   1.68461
-14.11765   0.31494   1.70038
-14.06758   0.31579   1.71619
-14.01752   0.31613   1.73202
-13.96746   0.31606   1.74784
-13.91740   0.31503   1.76361
-13.86733   0.31305   1.77928
-13.81727   0.31010   1.79481
-13.76721   0.30620   1.81014
-13.71715   0.30133   1.82522
-13.66708   0.29550   1.84002
-13.61702   0.28871   1.85447
-13.56696   0.28096   1.86853
-13.51690   0.27225   1.88216
-13.46683   0.26258   1.89531
-13.41677   0.25194   1.90792
-13.36671   0.24035   1.91995
-13.31665   0.22780   1.93136
-13.26658   0.21428   1.94209
-13.21652   0.19981   1.95209
-13.16646   0.18437   1.96132
-13.11640   0.16797   1.96973
-13.06633   0.15062   1.97727
-13.01627   0.13230   1.98389
-12.96621   0.18646   1.99323
-12.91615   0.04777   1.99562
-12.86608   0.03548   1.99739
-12.81602   0.02485   1.99864
-12.76596   0.01587   1.99943
-12.71589   0.00854   1.99986
-12.66583   0.01964   2.00084
-12.61577   0.05268   2.00348
-12.56571   0.08348   2.00766
-12.51564   0.10919   2.01313
-12.46558   0.12977   2.01962
-12.41552   0.14522   2.02689
-12.36546   0.15719   2.03476
-12.31539   0.16682   2.04311
-12.26533   0.17238   2.05174
-12.21527   0.17387   2.06045
-12.16521   0.17128   2.06902
-12.11514   0.17702   2.07788
-12.06508   0.19507   2.08765
-12.01502   0.21450   2.09839
-11.96496   0.23529   2.11017
-11.91489   0.25746   2.12306
-11.86483   0.28100   2.13712
-11.81477   0.30590   2.15244
-11.76471   0.33218   2.16907
-11.71464   0.35983   2.18708
-11.66458   0.38885   2.20655
-11.61452   0.41577   2.22736
-11.56446   0.43454   2.24912
-11.51439   0.45921   2.27211
-11.46433   0.49093   2.29668
-11.41427   0.52970   2.32320
-11.36421   0.57553   2.35202
-11.31414   0.79659   2.39190
-11.26408   0.83335   2.43361
-11.21402   0.92108   2.47973
-11.16395   0.96646   2.52811
-11.11389   0.96948   2.57664
-11.06383   0.93014   2.62321
-11.01377   0.84844   2.66569
-10.96370   0.74108   2.70279
-10.91364   0.68331   2.73699
-10.86358   0.63575   2.76882
-10.81352   0.59118   2.79842
-10.76345   0.54961   2.82593
-10.71339   0.51103   2.85152
-10.66333   0.47544   2.87532
-10.61327   0.44285   2.89749
-10.56320   0.41324   2.91818
-10.51314   0.38663   2.93753
-10.46308   0.36301   2.95570
-10.41302   0.34235   2.97284
-10.36295   0.32617   2.98917
-10.31289   0.31825   3.00510
-10.26283   0.31143   3.02070
-10.21277   0.30497   3.03596
-10.16270   0.29886   3.05092
-10.11264   0.29312   3.06560
-10.06258   0.28774   3.08000
-10.01252   0.28271   3.09416
 -9.96245   0.27805   3.10808
 -9.91239   0.27374   3.12178
 -9.86233   0.26980   3.13529
 -9.81227   0.26621   3.14862
 -9.76220   0.26298   3.16178
 -9.71214   0.26010   3.17480
 -9.66208   0.25742   3.18769
 -9.61202   0.25490   3.20045
 -9.56195   0.25255   3.21309
 -9.51189   0.25035   3.22563
 -9.46183   0.24831   3.23806
 -9.41176   0.24643   3.25039
 -9.36170   0.24471   3.26265
 -9.31164   0.24316   3.27482
 -9.26158   0.24176   3.28692
 -9.21151   0.24052   3.29896
 -9.16145   0.23944   3.31095
 -9.11139   0.35651   3.32880
 -9.06133   0.28516   3.34307
 -9.01126   0.29120   3.35765
 -8.96120   0.29810   3.37257
 -8.91114   0.30394   3.38779
 -8.86108   0.31200   3.40341
 -8.81101   0.32240   3.41955
 -8.76095   0.33513   3.43633
 -8.71089   0.35021   3.45386
 -8.66083   0.36760   3.47226
 -8.61076   0.38703   3.49164
 -8.56070   0.40877   3.51210
 -8.51064   0.43287   3.53377
 -8.46058   0.45700   3.55665
 -8.41051   0.47810   3.58059
 -8.36045   0.49597   3.60542
 -8.31039   0.51060   3.63098
 -8.26033   0.52199   3.65711
 -8.21026   0.53015   3.68365
 -8.16020   0.53506   3.71044
 -8.11014   0.53594   3.73727
 -8.06008   0.53147   3.76388
 -8.01001   0.52771   3.79029
 -7.95995   0.52537   3.81660
 -7.90989   0.52444   3.84285
 -7.85982   0.52493   3.86913
 -7.80976   0.53853   3.89609
 -7.75970   0.57938   3.92510
 -7.70964   0.60391   3.95533
 -7.65957   0.60930   3.98583
 -7.60951   0.59557   4.01565
 -7.55945   0.56270   4.04382
 -7.50939   0.52797   4.07025
 -7.45932   0.52640   4.09660
 -7.40926   0.52737   4.12300
 -7.35920   0.52914   4.14949
 -7.30914   0.53170   4.17611
 -7.25907   0.53505   4.20290
 -7.20901   0.53920   4.22989
 -7.15895   0.54415   4.25713
 -7.10889   0.54989   4.28466
 -7.05882   0.55642   4.31252
 -7.00876   0.56375   4.34074
 -6.95870   0.56916   4.36923
 -6.90864   0.56391   4.39746
 -6.85857   0.56829   4.42591
 -6.80851   0.62296   4.45710
 -6.75845   0.68544   4.49142
 -6.70839   0.74974   4.52895
 -6.65832   0.81585   4.56979
 -6.60826   0.88378   4.61404
 -6.55820   0.96711   4.66245
 -6.50814   0.73929   4.69946
 -6.45807   0.74898   4.73696
 -6.40801   0.75971   4.77499
 -6.35795   0.77148   4.81362
 -6.30788   0.77729   4.85253
 -6.25782   0.78283   4.89172
 -6.20776   0.79922   4.93173
 -6.15770   0.81818   4.97269
 -6.10763   0.83970   5.01473
 -6.05757   0.93366   5.06147
 -6.00751   0.97637   5.11035
 -5.95745   0.83712   5.15226
 -5.90738   0.78749   5.19168
 -5.85732   0.78048   5.23075
 -5.80726   0.77454   5.26953
 -5.75720   0.76968   5.30806
 -5.70713   0.76588   5.34640
 -5.65707   0.76315   5.38461
 -5.60701   0.76145   5.42273
 -5.55695   0.76027   5.46079
 -5.50688   0.75920   5.49880
 -5.45682   0.75824   5.53676
 -5.40676   0.75738   5.57467
 -5.35670   0.75663   5.61255
 -5.30663   0.75598   5.65040
 -5.25657   0.75497   5.68819
 -5.20651   0.75176   5.72583
 -5.15645   0.74988   5.76337
 -5.10638   0.74995   5.80091
 -5.05632   0.75196   5.83856
 -5.00626   0.75591   5.87640
 -4.95620   0.76185   5.91454
 -4.90613   0.76786   5.95298
 -4.85607   0.76711   5.99139
 -4.80601   0.76858   6.02986
 -4.75594   0.77056   6.06844
 -4.70588   0.77224   6.10710
 -4.65582   0.77360   6.14583
 -4.60576   0.77450   6.18460
 -4.55569   0.77488   6.22339
 -4.50563   0.77471   6.26218
 -4.45557   0.77401   6.30093
 -4.40551   0.77278   6.33962
 -4.35544   0.77100   6.37821
 -4.30538   0.76869   6.41670
 -4.25532   0.76584   6.45504
 -4.20526   0.76246   6.49321
 -4.15519   0.75854   6.53118
 -4.10513   0.75408   6.56893
 -4.05507   0.74908   6.60643
 -4.00501   0.74355   6.64366
 -3.95494   0.73748   6.68058
 -3.90488   0.73097   6.71717
 -3.85482   0.72438   6.75344
 -3.80476   0.71788   6.78938
 -3.75469   0.71175   6.82501
 -3.70463   0.70724   6.86041
 -3.65457   0.70479   6.89570
 -3.60451   0.70439   6.93096
 -3.55444   0.70606   6.96631
 -3.50438   0.70978   7.00184
 -3.45432   0.71556   7.03766
 -3.40426   0.72291   7.07385
 -3.35419   0.72301   7.11005
 -3.30413   0.71865   7.14603
 -3.25407   0.70713   7.18143
 -3.20401   0.69280   7.21611
 -3.15394   0.67719   7.25001
 -3.10388   0.66030   7.28307
 -3.05382   0.64213   7.31522
 -3.00375   0.62268   7.34639
 -2.95369   0.60147   7.37650
 -2.90363   0.57771   7.40542
 -2.85357   0.55265   7.43309
 -2.80350   0.52635   7.45944
 -2.75344   0.49883   7.48441
 -2.70338   0.47115   7.50800
 -2.65332   0.45428   7.53074
 -2.60325   0.44026   7.55278
 -2.55319   0.42599   7.57411
 -2.50313   0.41131   7.59470
 -2.45307   0.39613   7.61453
 -2.40300   0.38045   7.63358
 -2.35294   0.36428   7.65182
 -2.30288   0.34760   7.66922
 -2.25282   0.33101   7.68579
 -2.20275   0.31582   7.70160
 -2.15269   0.30218   7.71673
 -2.10263   0.29008   7.73125
 -2.05257   0.27953   7.74524
 -2.00250   0.27045   7.75878
 -1.95244   0.26220   7.77191
 -1.90238   0.25415   7.78463
 -1.85232   0.24630   7.79696
 -1.80225   0.23862   7.80891
 -1.75219   0.23114   7.82048
 -1.70213   0.22385   7.83169
 -1.65207   0.21678   7.84254
 -1.60200   0.21001   7.85305
 -1.55194   0.20354   7.86324
 -1.50188   0.19738   7.87312
 -1.45181   0.19151   7.88271
 -1.40175   0.18594   7.89202
 -1.35169   0.18067   7.90106
 -1.30163   0.17570   7.90986
 -1.25156   0.17103   7.91842
 -1.20150   0.16666   7.92677
 -1.15144   0.16259   7.93491
 -1.10138   0.15882   7.94286
 -1.05131   0.15535   7.95063
 -1.00125   0.15210   7.95825
 -0.95119   0.14544   7.96553
 -0.90113   0.13050   7.97206
 -0.85106   0.10691   7.97741
 -0.80100   0.07919   7.98138
 -0.75094   0.06755   7.98476
 -0.70088   0.05884   7.98771
 -0.65081   0.05074   7.99025
 -0.60075   0.04323   7.99241
 -0.55069   0.03633   7.99423
 -0.50063   0.03002   7.99573
 -0.45056   0.02432   7.99695
 -0.40050   0.01922   7.99791
 -0.35044   0.01472   7.99865
 -0.30038   0.01082   7.99919
 -0.25031   0.00752   7.99957
 -0.20025   0.00482   7.99981
 -0.15019   0.00272   7.99994
 -0.10013   0.00122   8.00001
 -0.05006   0.00032   8.00002
 -0.00000   0.00001   8.00002
  0.05006   0.00000   8.00002
  0.10013   0.00000   8.00002
  0.15019   0.00000   8.00002
  0.20025   0.00000   8.00002
  0.25031   0.00000   8.00002
  0.30038   0.00000   8.00002
  0.35044   0.00000   8.00002
  0.40050   0.00000   8.00002
  0.45056   0.00000   8.00002
  0.50063   0.00000   8.00002
  0.55069   0.00000   8.00002
  0.60075   0.00000   8.00002
  0.65081   0.00000   8.00002
  0.70088   0.00000   8.00002
  0.75094   0.00000   8.00002
  0.80100   0.00000   8.00002
  0.85106   0.00000   8.00002
  0.90113   0.00000   8.00002
  0.95119   0.00000   8.00002
  1.00125   0.00000   8.00002
  1.05131   0.00000   8.00002
  1.10138   0.00000   8.00002
  1.15144   0.00000   8.00002
  1.20150   0.00000   8.00002
  1.25156   0.00000   8.00002
  1.30163   0.00000   8.00002
  1.35169   0.00000   8.00002
  1.40175   0.00000   8.00002
  1.45181   0.00000   8.00002
  1.50188   0.00000   8.00002
  1.55194   0.00000   8.00002
  1.60200   0.00000   8.00002
  1.65207   0.00000   8.00002
  1.70213   0.00000   8.00002
  1.75219   0.00000   8.00002
  1.80225   0.00000   8.00002
  1.85232   0.00000   8.00002
  1.90238   0.00000   8.00002
  1.95244   0.00000   8.00002
  2.00250   0.00000   8.00002
  2.05257   0.00000   8.00002
  2.10263   0.00000   8.00002
  2.15269   0.00000   8.00002
  2.20275   0.00000   8.00002
  2.25282   0.00000   8.00002
  2.30288   0.00000   8.00002
  2.35294   0.00000   8.00002
  2.40300   0.00000   8.00002
  2.45307   0.00000   8.00002
  2.50313   0.00000   8.00002
  2.55319   0.00000   8.00002
  2.60325   0.00000   8.00002
  2.65332   0.00000   8.00002
  2.70338   0.00000   8.00002
  2.75344   0.00000   8.00002
  2.80350   0.00000   8.00002
  2.85357   0.00000   8.00002
  2.90363   0.00000   8.00002
  2.95369   0.00000   8.00002
  3.00375   0.00000   8.00002
  3.05382   0.00000   8.00002
  3.10388   0.00000   8.00002
  3.15394   0.00000   8.00002
  3.20401   0.00000   8.00002
  3.25407   0.00000   8.00002
  3.30413   0.00000   8.00002
  3.35419   0.00000   8.00002
  3.40426   0.00000   8.00002
  3.45432   0.00000   8.00002
  3.50438   0.00000   8.00002
  3.55444   0.00000   8.00002
  3.60451   0.00000   8.00002
  3.65457   0.00000   8.00002
  3.70463   0.00000   8.00002
  3.75469   0.00000   8.00002
  3.80476   0.00000   8.00002
  3.85482   0.00000   8.00002
  3.90488   0.00000   8.00002
  3.95494   0.00000   8.00002
  4.00501   0.00000   8.00002
  4.05507   0.00000   8.00002
  4.10513   0.00000   8.00002
  4.15519   0.00000   8.00002
  4.20526   0.00000   8.00002
  4.25532   0.00172   8.00011
  4.30538   0.01296   8.00076
  4.35544   0.02575   8.00205
  4.40551   0.03824   8.00396
  4.45557   0.05042   8.00648
  4.50563   0.06230   8.00960
  4.55569   0.07388   8.01330
  4.60576   0.08516   8.01757
  4.65582   0.09614   8.02238
  4.70588   0.10682   8.02773
  4.75594   0.11720   8.03359
  4.80601   0.12727   8.03997
  4.85607   0.13705   8.04683
  4.90613   0.14652   8.05416
  4.95620   0.15570   8.06196
  5.00626   0.16457   8.07020
  5.05632   0.17350   8.07888
  5.10638   0.18366   8.08808
  5.15645   0.19395   8.09779
  5.20651   0.20450   8.10802
  5.25657   0.21653   8.11886
  5.30663   0.22909   8.13033
  5.35670   0.24201   8.14245
  5.40676   0.25529   8.15523
  5.45682   0.26894   8.16869
  5.50688   0.28294   8.18286
  5.55695   0.29731   8.19774
  5.60701   0.31192   8.21336
  5.65707   0.32650   8.22970
  5.70713   0.34185   8.24682
  5.75720   0.35796   8.26474
  5.80726   0.37404   8.28346
  5.85732   0.39008   8.30299
  5.90738   0.40596   8.32331
  5.95745   0.42134   8.34441
  6.00751   0.43642   8.36626
  6.05757   0.45121   8.38884
  6.10763   0.46554   8.41215
  6.15770   0.47969   8.43616
  6.20776   0.49381   8.46089
  6.25782   0.50791   8.48631
  6.30788   0.52199   8.51245
  6.35795   0.53604   8.53928
  6.40801   0.55007   8.56682
  6.45807   0.56407   8.59506
  6.50814   0.57805   8.62400
  6.55820   0.59201   8.65363
  6.60826   0.60594   8.68397
  6.65832   0.61595   8.71481
  6.70839   0.62331   8.74601
  6.75845   0.63158   8.77763
  6.80851   0.64076   8.80971
  6.85857   0.65084   8.84229
  6.90864   0.66183   8.87542
  6.95870   0.67373   8.90915
  7.00876   0.68781   8.94358
  7.05882   0.70577   8.97892
  7.10889   0.72919   9.01542
  7.15895   0.75851   9.05340
  7.20901   0.79363   9.09313
  7.25907   0.83352   9.13485
  7.30914   0.87555   9.17869
  7.35920   0.91920   9.22470
  7.40926   0.96445   9.27299
  7.45932   1.01131   9.32362
  7.50939   1.05978   9.37667
  7.55945   1.10985   9.43223
  7.60951   1.16154   9.49038
  7.65957   1.21483   9.55120
  7.70964   1.26783   9.61467
  7.75970   1.29596   9.67955
  7.80976   1.30898   9.74508
  7.85982   1.31305   9.81082
  7.90989   1.30816   9.87631
  7.95995   1.29432   9.94110
  8.01001   1.27152  10.00476
  8.06008   1.23953  10.06681
  8.11014   1.30610  10.13220
  8.16020   1.11908  10.18822
  8.21026   1.06053  10.24132
  8.26033   0.92911  10.28783
  8.31039   0.72424  10.32409
  8.36045   0.48624  10.34843
  8.41051   0.40772  10.36884
  8.46058   0.40008  10.38887
  8.51064   0.43296  10.41054
  8.56070   0.46957  10.43405
  8.61076   0.50737  10.45945
  8.66083   0.54623  10.48680
  8.71089   0.57805  10.51574
  8.76095   0.60527  10.54604
  8.81101   0.63374  10.57776
  8.86108   0.66287  10.61095
  8.91114   0.69265  10.64563
  8.96120   0.72310  10.68183
  9.01126   0.75420  10.71958
  9.06133   0.78595  10.75893
  9.11139   0.81820  10.79989
  9.16145   0.85040  10.84246
  9.21151   0.88247  10.88664
  9.26158   0.91440  10.93242
  9.31164   0.94619  10.97979
  9.36170   0.97784  11.02874
  9.41176   1.00935  11.07927
  9.46183   1.04073  11.13137
  9.51189   1.07196  11.18504
  9.56195   1.10306  11.24026
  9.61202   1.13402  11.29703
  9.66208   1.21718  11.35797
  9.71214   1.54886  11.43551
  9.76220   1.54182  11.51270
  9.81227   1.42964  11.58427
  9.86233   1.38610  11.65366
  9.91239   1.33742  11.72061
  9.96245   1.25487  11.78344
 10.01252   1.16613  11.84181
 10.06258   1.07979  11.89587
 10.11264   0.99685  11.94578
 10.16270   0.91805  11.99174
 10.21277   0.84925  12.03425
 10.26283   0.79404  12.07400
 10.31289   0.75295  12.11170
 10.36295   0.72600  12.14804
 10.41302   0.71070  12.18362
 10.46308   0.69617  12.21848
 10.51314   0.67934  12.25249
 10.56320   0.65399  12.28523
 10.61327   0.63164  12.31685
 10.66333   0.61714  12.34774
 10.71339   0.60308  12.37794
 10.76345   0.58946  12.40745
 10.81352   0.57628  12.43630
 10.86358   0.56353  12.46451
 10.91364   0.55123  12.49210
 10.96370   0.53936  12.51910
 11.01377   0.52793  12.54553
 11.06383   0.51695  12.57141
 11.11389   0.50640  12.59677
 11.16395   0.49629  12.62161
 11.21402   0.48658  12.64597
 11.26408   0.47722  12.66986
 11.31414   0.46821  12.69330
 11.36421   0.45948  12.71630
 11.41427   0.45094  12.73888
 11.46433   0.44256  12.76103
 11.51439   0.43435  12.78278
 11.56446   0.42632  12.80412
 11.61452   0.41845  12.82507
 11.66458   0.41075  12.84563
 11.71464   0.51492  12.87141
 11.76471   0.37788  12.89033
 11.81477   0.37143  12.90892
 11.86483   0.36310  12.92710
 11.91489   0.35289  12.94477
 11.96496   0.34080  12.96183
 12.01502   0.32683  12.97819
 12.06508   0.31099  12.99376
 12.11514   0.29343  13.00845
 12.16521   0.28747  13.02284
 12.21527   0.28959  13.03734
 12.26533   0.29183  13.05195
 12.31539   0.29678  13.06681
 12.36546   0.38238  13.08595
 12.41552   0.48465  13.11021
 12.46558   0.55762  13.13813
 12.51564   0.60130  13.16823
 12.56571   0.61568  13.19905
 12.61577   0.60308  13.22925
 12.66583   0.59745  13.25916
 12.71589   0.85949  13.30218
 12.76596   1.12425  13.35847
 12.81602   1.35950  13.42653
 12.86608   1.40366  13.49680
 12.91615   1.32560  13.56316
 12.96621   1.25965  13.62622
 13.01627   1.20738  13.68667
 13.06633   1.16985  13.74523
 13.11640   1.14769  13.80269
 13.16646   1.11345  13.85843
 13.21652   1.07617  13.91231
 13.26658   1.04225  13.96448
 13.31665   1.00960  14.01503
 13.36671   0.97824  14.06400
 13.41677   0.94815  14.11147
 13.46683   0.91934  14.15749
 13.51690   0.89180  14.20214
 13.56696   1.01559  14.25298
 13.61702   0.91256  14.29867
 13.66708   0.91368  14.34441
 13.71715   0.86541  14.38773
 13.76721   0.93028  14.43430
 13.81727   1.01191  14.48496
 13.86733   1.10611  14.54034
 13.91740   1.21187  14.60101
 13.96746   1.31789  14.66698
 14.01752   1.41494  14.73782
 14.06758   1.50276  14.81305
 14.11765   1.58134  14.89222
 14.16771   1.63006  14.97382
 14.21777   1.27342  15.03757
 14.26783   1.16115  15.09570
 14.31790   1.09298  15.15042
 14.36796   1.03706  15.20234
 14.41802   0.99060  15.25193
 14.46809   0.94508  15.29924
 14.51815   0.90051  15.34433
 14.56821   0.85688  15.38722
 14.61827   0.81419  15.42798
 14.66834   0.77245  15.46665
 14.71840   0.73165  15.50328
 14.76846   0.69179  15.53792
 14.81852   0.65287  15.57060
 14.86859   0.61501  15.60139
 14.91865   0.57846  15.63035
 14.96871   0.54325  15.65754
 15.01877   0.50939  15.68305
 15.06884   0.47688  15.70692
 15.11890   0.44571  15.72923
 15.16896   0.41589  15.75005
 15.21902   0.38742  15.76945
 15.26909   0.36030  15.78749
 15.31915   0.33452  15.80423
 15.36921   0.31009  15.81976
 15.41927   0.28701  15.83413
 15.46934   0.29436  15.84886
 15.51940   0.54552  15.87617
 15.56946   0.26264  15.88932
 15.61952   0.16269  15.89747
 15.66959   0.15883  15.90542
 15.71965   0.15687  15.91327
 15.76971   0.15507  15.92103
 15.81977   0.15433  15.92876
 15.86984   0.17154  15.93735
 15.91990   0.18649  15.94668
 15.96996   0.18913  15.95615
 16.02003   0.17945  15.96514
 16.07009   0.15747  15.97302
 16.12015   0.14446  15.98025
 16.17021   0.21196  15.99086
 16.22028   0.16419  15.99908
 16.27034   0.01922  16.00004
 16.32040   0.00000  16.00004
 16.37046   0.00000  16.00004
 16.42053   0.00000  16.00004
 16.47059   0.00000  16.00004
 16.52065   0.00000  16.00004
 16.57071   0.00000  16.00004
 16.62078   0.00000  16.00004
 16.67084   0.00000  16.00004
 16.72090   0.00000  16.00004
 16.77096   0.00000  16.00004
 16.82103   0.00000  16.00004
 16.87109   0.00000  16.00004
 16.92115   0.00000  16.00004
 16.97121   0.00000  16.00004
 17.02128   0.00000  16.00004
 17.07134   0.00000  16.00004
 17.12140   0.00000  16.00004
 17.17146   0.00000  16.00004
 17.22153   0.00000  16.00004
 17.27159   0.00000  16.00004
 17.32165   0.00000  16.00004
 17.37171   0.00000  16.00004
 17.42178   0.00000  16.00004
 17.47184   0.00000  16.00004
 17.52190   0.00000  16.00004
 17.57196   0.00000  16.00004
 17.62203   0.00000  16.00004
 17.67209   0.00000  16.00004
 17.72215   0.00000  16.00004
 17.77222   0.00000  16.00004
 17.82228   0.00000  16.00004
 17.87234   0.00000  16.00004
 17.92240   0.00000  16.00004
 17.97247   0.00000  16.00004
 18.02253   0.00000  16.00004
     18.02252816     -22.02753442   801       9.67159069       1.00000000; Z=  6; 2s 2p_y 2p_z 2p_x 
-22.02753   0.00000   0.00000   0.00000   0.00000
-21.97747   0.00000   0.00000   0.00000   0.00000
-21.92741   0.00000   0.00000   0.00000   0.00000
-21.87735   0.00000   0.00000   0.00000   0.00000
-21.82728   0.00000   0.00000   0.00000   0.00000
-21.77722   0.00000   0.00000   0.00000   0.00000
-21.72716   0.00000   0.00000   0.00000   0.00000
-21.67710   0.00000   0.00000   0.00000   0.00000
-21.62703   0.00000   0.00000   0.00000   0.00000
-21.57697   0.00000   0.00000   0.00000   0.00000
-21.52691   0.00000   0.00000   0.00000   0.00000
-21.47685   0.00000   0.00000   0.00000   0.00000
-21.42678   0.00000   0.00000   0.00000   0.00000
-21.37672   0.00010   0.00000   0.00000   0.00000
-21.32666   0.00078   0.00001   0.00001   0.00001
-21.27660   0.00217   0.00003   0.00003   0.00003
-21.22653   0.00427   0.00007   0.00007   0.00007
-21.17647   0.00708   0.00011   0.00011   0.00011
-21.12641   0.01059   0.00017   0.00017   0.00017
-21.07635   0.01482   0.00023   0.00023   0.00023
-21.02628   0.01975   0.00031   0.00031   0.00031
-20.97622   0.02539   0.00040   0.00040   0.00040
-20.92616   0.03174   0.00050   0.00050   0.00050
-20.87610   0.03881   0.00061   0.00061   0.00061
-20.82603   0.04302   0.00074   0.00074   0.00074
-20.77597   0.03949   0.00088   0.00088   0.00088
-20.72591   0.03727   0.00101   0.00101   0.00101
-20.67584   0.03681   0.00112   0.00112   0.00112
-20.62578   0.03783   0.00122   0.00122   0.00122
-20.57572   0.03914   0.00133   0.00133   0.00133
-20.52566   0.04048   0.00143   0.00143   0.00143
-20.47559   0.04184   0.00154   0.00154   0.00154
-20.42553   0.04322   0.00165   0.00165   0.00165
-20.37547   0.04462   0.00176   0.00176   0.00176
-20.32541   0.04604   0.00187   0.00187   0.00187
-20.27534   0.04748   0.00199   0.00199   0.00199
-20.22528   0.04894   0.00210   0.00210   0.00210
-20.17522   0.05042   0.00222   0.00222   0.00222
-20.12516   0.05192   0.00234   0.00234   0.00234
-20.07509   0.05344   0.00247   0.00247   0.00247
-20.02503   0.05499   0.00259   0.00259   0.00259
-19.97497   0.05655   0.00272   0.00272   0.00272
-19.92491   0.05813   0.00284   0.00284   0.00284
-19.87484   0.05967   0.00297   0.00297   0.00297
-19.82478   0.06105   0.00311   0.00311   0.00311
-19.77472   0.06224   0.00325   0.00325   0.00325
-19.72466   0.06325   0.00340   0.00340   0.00340
-19.67459   0.06407   0.00355   0.00355   0.00355
-19.62453   0.06470   0.00370   0.00370   0.00370
-19.57447   0.06516   0.00387   0.00387   0.00387
-19.52441   0.06542   0.00403   0.00403   0.00403
-19.47434   0.06550   0.00420   0.00420   0.00420
-19.42428   0.06540   0.00438   0.00438   0.00438
-19.37422   0.06512   0.00456   0.00456   0.00456
-19.32416   0.06502   0.00474   0.00474   0.00474
-19.27409   0.06523   0.00490   0.00490   0.00490
-19.22403   0.06564   0.00506   0.00506   0.00506
-19.17397   0.06624   0.00521   0.00521   0.00521
-19.12390   0.06692   0.00536   0.00536   0.00536
-19.07384   0.06762   0.00551   0.00551   0.00551
-19.02378   0.06832   0.00566   0.00566   0.00566
-18.97372   0.06902   0.00581   0.00581   0.00581
-18.92365   0.06973   0.00596   0.00596   0.00596
-18.87359   0.07044   0.00611   0.00611   0.00611
-18.82353   0.07116   0.00626   0.00626   0.00626
-18.77347   0.07188   0.00641   0.00641   0.00641
-18.72340   0.07261   0.00657   0.00657   0.00657
-18.67334   0.07334   0.00672   0.00672   0.00672
-18.62328   0.07408   0.00687   0.00687   0.00687
-18.57322   0.07482   0.00703   0.00703   0.00703
-18.52315   0.07556   0.00718   0.00718   0.00718
-18.47309   0.07631   0.00734   0.00734   0.00734
-18.42303   0.07707   0.00749   0.00749   0.00749
-18.37297   0.07783   0.00765   0.00765   0.00765
-18.32290   0.07859   0.00781   0.00781   0.00781
-18.27284   0.07936   0.00796   0.00796   0.00796
-18.22278   0.08014   0.00812   0.00812   0.00812
-18.17272   0.08092   0.00828   0.00828   0.00828
-18.12265   0.08171   0.00844   0.00844   0.00844
-18.07259   0.08250   0.00860   0.00860   0.00860
-18.02253   0.08330   0.00877   0.00877   0.00877
-17.97247   0.08410   0.00893   0.00893   0.00893
-17.92240   0.08482   0.00910   0.00910   0.00910
-17.87234   0.08475   0.00932   0.00932   0.00932
-17.82228   0.08470   0.00955   0.00955   0.00955
-17.77222   0.08489   0.00975   0.00975   0.00975
-17.72215   0.08530   0.00995   0.00995   0.00995
-17.67209   0.08582   0.01014   0.01014   0.01014
-17.62203   0.08634   0.01033   0.01033   0.01033
-17.57196   0.08688   0.01052   0.01052   0.01052
-17.52190   0.08742   0.01072   0.01072   0.01072
-17.47184   0.08798   0.01091   0.01091   0.01091
-17.42178   0.08855   0.01111   0.01111   0.01111
-17.37171   0.08913   0.01131   0.01131   0.01131
-17.32165   0.08972   0.01150   0.01150   0.01150
-17.27159   0.09031   0.01170   0.01170   0.01170
-17.22153   0.09092   0.01190   0.01190   0.01190
-17.17146   0.09154   0.01211   0.01211   0.01211
-17.12140   0.09217   0.01231   0.01231   0.01231
-17.07134   0.09281   0.01251   0.01251   0.01251
-17.02128   0.09348   0.01272   0.01272   0.01272
-16.97121   0.09425   0.01294   0.01294   0.01294
-16.92115   0.09513   0.01317   0.01317   0.01317
-16.87109   0.09612   0.01341   0.01341   0.01341
-16.82103   0.09722   0.01366   0.01366   0.01366
-16.77096   0.09844   0.01392   0.01392   0.01392
-16.72090   0.09977   0.01419   0.01419   0.01419
-16.67084   0.10121   0.01447   0.01447   0.01447
-16.62078   0.10276   0.01477   0.01477   0.01477
-16.57071   0.10525   0.01517   0.01517   0.01517
-16.52065   0.10836   0.01566   0.01566   0.01566