 vasp.5.4.4.18Apr17-6-g9f103f2a35 (build Sep 16 2021 13:51:27) complex          
  
 executed on             LinuxIFC date 2023.03.16  11:28:57
 running on   24 total cores
 distrk:  each k-point on   24 cores,    1 groups
 distr:  one band on NCORES_PER_BAND=  24 cores,    1 groups


--------------------------------------------------------------------------------------------------------


 INCAR:
 POTCAR:    PAW_PBE Sn 08Apr2002                  
 POTCAR:    PAW_PBE Se 06Sep2000                  

 ----------------------------------------------------------------------------- 
|                                                                             |
|           W    W    AA    RRRRR   N    N  II  N    N   GGGG   !!!           |
|           W    W   A  A   R    R  NN   N  II  NN   N  G    G  !!!           |
|           W    W  A    A  R    R  N N  N  II  N N  N  G       !!!           |
|           W WW W  AAAAAA  RRRRR   N  N N  II  N  N N  G  GGG   !            |
|           WW  WW  A    A  R   R   N   NN  II  N   NN  G    G                |
|           W    W  A    A  R    R  N    N  II  N    N   GGGG   !!!           |
|                                                                             |
|      For optimal performance we recommend to set                            |
|        NCORE= 4 - approx SQRT( number of cores)                             |
|      NCORE specifies how many cores store one orbital (NPAR=cpu/NCORE).     |
|      This setting can  greatly improve the performance of VASP for DFT.     |
|      The default,   NCORE=1            might be grossly inefficient         |
|      on modern multi-core architectures or massively parallel machines.     |
|      Do your own testing !!!!                                               |
|      Unfortunately you need to use the default for GW and RPA calculations. |
|      (for HF NCORE is supported but not extensively tested yet)             |
|                                                                             |
 ----------------------------------------------------------------------------- 

 POTCAR:    PAW_PBE Sn 08Apr2002                  
   VRHFIN =Sn: s2p2                                                             
   LEXCH  = PE                                                                  
   EATOM  =    94.0860 eV,    6.9151 Ry                                         
                                                                                
   TITEL  = PAW_PBE Sn 08Apr2002                                                
   LULTRA =        F    use ultrasoft PP ?                                      
   IUNSCR =        1    unscreen: 0-lin 1-nonlin 2-no                           
   RPACOR =    2.000    partial core radius                                     
   POMASS =  118.710; ZVAL   =    4.000    mass and valenz                      
   RCORE  =    3.000    outmost cutoff radius                                   
   RWIGS  =    2.960; RWIGS  =    1.566    wigner-seitz radius (au A)           
   ENMAX  =  103.236; ENMIN  =   77.427 eV                                      
   ICORE  =        3    local potential                                         
   LCOR   =        T    correct aug charges                                     
   LPAW   =        T    paw PP                                                  
   EAUG   =  263.585                                                            
   DEXC   =    0.000                                                            
   RMAX   =    3.078    core radius for proj-oper                               
   RAUG   =    1.300    factor for augmentation sphere                          
   RDEP   =    3.022    radius for radial grids                                 
   RDEPT  =    2.655    core radius for aug-charge                              
                                                                                
   Atomic configuration                                                         
   13 entries                                                                   
     n  l   j            E        occ.                                          
     1  0  0.50    -29007.2859   2.0000                                         
     2  0  0.50     -4378.8056   2.0000                                         
     2  1  1.50     -3930.4293   6.0000                                         
     3  0  0.50      -845.0264   2.0000                                         
     3  1  1.50      -698.5725   6.0000                                         
     3  2  2.50      -473.2839  10.0000                                         
     4  0  0.50      -133.9036   2.0000                                         
     4  1  1.50       -89.6752   6.0000                                         
     4  2  2.50       -25.8375  10.0000                                         
     5  0  0.50       -10.5484   2.0000                                         
     5  1  0.50        -3.6940   2.0000                                         
     5  2  1.50        -1.3606   0.0000                                         
     4  3  2.50        -4.0817   0.0000                                         
   Description                                                                  
     l       E           TYP  RCUT    TYP  RCUT                                 
     0    -10.5483727     23  3.000                                             
     0     27.2116520     23  3.000                                             
     1     -3.6939829     23  3.000                                             
     1      1.9821976     23  3.000                                             
     2     -1.3605826     23  3.000                                             
     3     -2.7211652     23  3.000                                             
  local pseudopotential read in
  partial core-charges read in
  partial kinetic energy density read in
  atomic valenz-charges read in
  non local Contribution for L=           0  read in
    real space projection operators read in
  non local Contribution for L=           0  read in
    real space projection operators read in
  non local Contribution for L=           1  read in
    real space projection operators read in
  non local Contribution for L=           1  read in
    real space projection operators read in
  non local Contribution for L=           2  read in
    real space projection operators read in
    PAW grid and wavefunctions read in
 
   number of l-projection  operators is LMAX  =           5
   number of lm-projection operators is LMMAX =          13
 
 POTCAR:    PAW_PBE Se 06Sep2000                  
   VRHFIN =Se: s2p4                                                             
   LEXCH  = PE                                                                  
   EATOM  =   257.1286 eV,   18.8984 Ry                                         
                                                                                
   TITEL  = PAW_PBE Se 06Sep2000                                                
   LULTRA =        F    use ultrasoft PP ?                                      
   IUNSCR =        1    unscreen: 0-lin 1-nonlin 2-no                           
   RPACOR =    1.900    partial core radius                                     
   POMASS =   78.960; ZVAL   =    6.000    mass and valenz                      
   RCORE  =    2.100    outmost cutoff radius                                   
   RWIGS  =    2.200; RWIGS  =    1.164    wigner-seitz radius (au A)           
   ENMAX  =  211.555; ENMIN  =  158.666 eV                                      
   ICORE  =        3    local potential                                         
   LCOR   =        T    correct aug charges                                     
   LPAW   =        T    paw PP                                                  
   EAUG   =  446.842                                                            
   DEXC   =    0.000                                                            
   RMAX   =    2.147    core radius for proj-oper                               
   RAUG   =    1.300    factor for augmentation sphere                          
   RDEP   =    2.177    radius for radial grids                                 
   RDEPT  =    1.928    core radius for aug-charge                              
                                                                                
   Atomic configuration                                                         
   10 entries                                                                   
     n  l   j            E        occ.                                          
     1  0  0.50    -12503.4787   2.0000                                         
     2  0  0.50     -1606.9547   2.0000                                         
     2  1  1.50     -1413.3140   6.0000                                         
     3  0  0.50      -213.4885   2.0000                                         
     3  1  1.50      -152.9538   6.0000                                         
     3  2  2.50       -53.1221  10.0000                                         
     4  0  0.50       -17.2865   2.0000                                         
     4  1  0.50        -6.5110   4.0000                                         
     4  2  2.50        -6.8029   0.0000                                         
     4  3  2.50        -6.8029   0.0000                                         
   Description                                                                  
     l       E           TYP  RCUT    TYP  RCUT                                 
     0    -17.2865377     23  2.100                                             
     0    -15.3094411     23  2.100                                             
     1     -6.5110275     23  2.100                                             
     1     -0.0695192     23  2.100                                             
     2     -6.8029130     23  2.100                                             
     3     -1.3605826      7  2.100                                             
  local pseudopotential read in
  partial core-charges read in
  partial kinetic energy density read in
  atomic valenz-charges read in
  non local Contribution for L=           0  read in
    real space projection operators read in
  non local Contribution for L=           0  read in
    real space projection operators read in
  non local Contribution for L=           1  read in
    real space projection operators read in
  non local Contribution for L=           1  read in
    real space projection operators read in
  non local Contribution for L=           2  read in
    real space projection operators read in
    PAW grid and wavefunctions read in
 
   number of l-projection  operators is LMAX  =           5
   number of lm-projection operators is LMMAX =          13
 
 WARNING: PSMAXN for non-local potential too small
          PSMAXN should be >   12.5490833729506       NTYP=           1
  PAW_PBE Sn 08Apr2002                  :
 energy of atom  1       EATOM=  -94.0860
 kinetic energy error for atom=    0.0000 (will be added to EATOM!!)
  PAW_PBE Se 06Sep2000                  :
 energy of atom  2       EATOM= -257.1286
 kinetic energy error for atom=    0.0006 (will be added to EATOM!!)
 
 
 POSCAR:  POSCAR with strain of 0.007            
  positions in direct lattice
  No initial velocities read in
 exchange correlation table for  LEXCH =        8
   RHO(1)=    0.500       N(1)  =     2000
   RHO(2)=  100.500       N(2)  =     4000
 


--------------------------------------------------------------------------------------------------------


 ion  position               nearest neighbor table
   1  0.581  0.750  0.569-   4 2.72   3 2.92   3 2.94   3 3.22   3 3.25
   2  0.081  0.250  0.431-   3 2.72   4 2.92   4 2.94   4 3.22   4 3.25
   3  0.033  0.250  0.567-   2 2.72   1 2.92   1 2.94   1 3.22   1 3.25
   4  0.533  0.750  0.433-   1 2.72   2 2.92   2 2.94   2 3.22   2 3.25
 
  LATTYP: Found a simple monoclinic cell.
 ALAT       =     6.1808840680
 B/A-ratio  =     3.2357830660
 C/A-ratio  =     1.5931918089
 COS(beta)  =    -0.9502866999
  
  Lattice vectors:
  
 A1 = (  -4.4313212326,  -4.3089116951,   0.0000000000)
 A2 = (   0.0000000000,   0.0000000000, -20.0000000000)
 A3 = (   8.8465456733,   4.3253455329,   0.0000000000)


Analysis of symmetry for initial positions (statically):
=====================================================================
 Subroutine PRICEL returns:
 Original cell was already a primitive cell.
 

 Routine SETGRP: Setting up the symmetry group for a 
 simple monoclinic supercell.


 Subroutine GETGRP returns: Found  2 space group operations
 (whereof  1 operations were pure point group operations)
 out of a pool of  4 trial point group operations.


The static configuration has the point symmetry C_1 .
 The point group associated with its full space group is C_1h.


Analysis of symmetry for dynamics (positions and initial velocities):
=====================================================================
 Subroutine PRICEL returns:
 Original cell was already a primitive cell.
 

 Routine SETGRP: Setting up the symmetry group for a 
 simple monoclinic supercell.


 Subroutine GETGRP returns: Found  2 space group operations
 (whereof  1 operations were pure point group operations)
 out of a pool of  4 trial point group operations.


The dynamic configuration has the point symmetry C_1 .
 The point group associated with its full space group is C_1h.


 Subroutine INISYM returns: Found  2 space group operations
 (whereof  1 operations are pure point group operations),
 and found     1 'primitive' translations

 
 
 KPOINTS: KMesh Grid                              

Automatic generation of k-mesh.
Space group operators:
 irot       det(A)        alpha          n_x          n_y          n_z        tau_x        tau_y        tau_z
    1     1.000000     0.000000     1.000000     0.000000     0.000000     0.000000     0.000000     0.000000
    2    -1.000000   179.999999     0.000000     0.000000     1.000000    -0.500000    -0.500000     0.000000
 
 Subroutine IBZKPT returns following result:
 ===========================================
 
 Found    113 irreducible k-points:
 
 Following reciprocal coordinates:
            Coordinates               Weight
  0.000000  0.000000  0.000000      1.000000
  0.066667 -0.000000  0.000000      2.000000
  0.133333 -0.000000  0.000000      2.000000
  0.200000 -0.000000  0.000000      2.000000
  0.266667 -0.000000  0.000000      2.000000
  0.333333  0.000000  0.000000      2.000000
  0.400000 -0.000000  0.000000      2.000000
  0.466667 -0.000000  0.000000      2.000000
  0.000000  0.066667  0.000000      2.000000
  0.066667  0.066667  0.000000      2.000000
  0.133333  0.066667  0.000000      2.000000
  0.200000  0.066667  0.000000      2.000000
  0.266667  0.066667  0.000000      2.000000
  0.333333  0.066667  0.000000      2.000000
  0.400000  0.066667  0.000000      2.000000
  0.466667  0.066667  0.000000      2.000000
 -0.466667  0.066667  0.000000      2.000000
 -0.400000  0.066667  0.000000      2.000000
 -0.333333  0.066667  0.000000      2.000000
 -0.266667  0.066667  0.000000      2.000000
 -0.200000  0.066667  0.000000      2.000000
 -0.133333  0.066667  0.000000      2.000000
 -0.066667  0.066667  0.000000      2.000000
  0.000000  0.133333  0.000000      2.000000
  0.066667  0.133333  0.000000      2.000000
  0.133333  0.133333  0.000000      2.000000
  0.200000  0.133333  0.000000      2.000000
  0.266667  0.133333  0.000000      2.000000
  0.333333  0.133333  0.000000      2.000000
  0.400000  0.133333  0.000000      2.000000
  0.466667  0.133333  0.000000      2.000000
 -0.466667  0.133333  0.000000      2.000000
 -0.400000  0.133333  0.000000      2.000000
 -0.333333  0.133333  0.000000      2.000000
 -0.266667  0.133333  0.000000      2.000000
 -0.200000  0.133333  0.000000      2.000000
 -0.133333  0.133333  0.000000      2.000000
 -0.066667  0.133333  0.000000      2.000000
  0.000000  0.200000  0.000000      2.000000
  0.066667  0.200000  0.000000      2.000000
  0.133333  0.200000  0.000000      2.000000
  0.200000  0.200000  0.000000      2.000000
  0.266667  0.200000  0.000000      2.000000
  0.333333  0.200000  0.000000      2.000000
  0.400000  0.200000  0.000000      2.000000
  0.466667  0.200000  0.000000      2.000000
 -0.466667  0.200000  0.000000      2.000000
 -0.400000  0.200000  0.000000      2.000000
 -0.333333  0.200000  0.000000      2.000000
 -0.266667  0.200000  0.000000      2.000000
 -0.200000  0.200000  0.000000      2.000000
 -0.133333  0.200000  0.000000      2.000000
 -0.066667  0.200000  0.000000      2.000000
 -0.000000  0.266667  0.000000      2.000000
  0.066667  0.266667  0.000000      2.000000
  0.133333  0.266667  0.000000      2.000000
  0.200000  0.266667  0.000000      2.000000
  0.266667  0.266667  0.000000      2.000000
  0.333333  0.266667  0.000000      2.000000
  0.400000  0.266667  0.000000      2.000000
  0.466667  0.266667  0.000000      2.000000
 -0.466667  0.266667  0.000000      2.000000
 -0.400000  0.266667  0.000000      2.000000
 -0.333333  0.266667  0.000000      2.000000
 -0.266667  0.266667  0.000000      2.000000
 -0.200000  0.266667  0.000000      2.000000
 -0.133333  0.266667  0.000000      2.000000
 -0.066667  0.266667  0.000000      2.000000
  0.000000  0.333333  0.000000      2.000000
  0.066667  0.333333  0.000000      2.000000
  0.133333  0.333333  0.000000      2.000000
  0.200000  0.333333  0.000000      2.000000
  0.266667  0.333333  0.000000      2.000000
  0.333333  0.333333  0.000000      2.000000
  0.400000  0.333333  0.000000      2.000000
  0.466667  0.333333  0.000000      2.000000
 -0.466667  0.333333  0.000000      2.000000
 -0.400000  0.333333  0.000000      2.000000
 -0.333333  0.333333  0.000000      2.000000
 -0.266667  0.333333  0.000000      2.000000
 -0.200000  0.333333  0.000000      2.000000
 -0.133333  0.333333  0.000000      2.000000
 -0.066667  0.333333  0.000000      2.000000
  0.000000  0.400000  0.000000      2.000000
  0.066667  0.400000  0.000000      2.000000
  0.133333  0.400000  0.000000      2.000000
  0.200000  0.400000  0.000000      2.000000
  0.266667  0.400000  0.000000      2.000000
  0.333333  0.400000  0.000000      2.000000
  0.400000  0.400000  0.000000      2.000000
  0.466667  0.400000  0.000000      2.000000
 -0.466667  0.400000  0.000000      2.000000
 -0.400000  0.400000  0.000000      2.000000
 -0.333333  0.400000  0.000000      2.000000
 -0.266667  0.400000  0.000000      2.000000
 -0.200000  0.400000  0.000000      2.000000
 -0.133333  0.400000  0.000000      2.000000
 -0.066667  0.400000  0.000000      2.000000
  0.000000  0.466667  0.000000      2.000000
  0.066667  0.466667  0.000000      2.000000
  0.133333  0.466667  0.000000      2.000000
  0.200000  0.466667  0.000000      2.000000
  0.266667  0.466667  0.000000      2.000000
  0.333333  0.466667  0.000000      2.000000
  0.400000  0.466667  0.000000      2.000000
  0.466667  0.466667  0.000000      2.000000
 -0.466667  0.466667  0.000000      2.000000
 -0.400000  0.466667  0.000000      2.000000
 -0.333333  0.466667  0.000000      2.000000
 -0.266667  0.466667  0.000000      2.000000
 -0.200000  0.466667  0.000000      2.000000
 -0.133333  0.466667  0.000000      2.000000
 -0.066667  0.466667  0.000000      2.000000
 
 Following cartesian coordinates:
            Coordinates               Weight
  0.000000  0.000000  0.000000      1.000000
  0.015099 -0.000057  0.000000      2.000000
  0.030199 -0.000113  0.000000      2.000000
  0.045298 -0.000170  0.000000      2.000000
  0.060398 -0.000226  0.000000      2.000000
  0.075497 -0.000283  0.000000      2.000000
  0.090597 -0.000340  0.000000      2.000000
  0.105696 -0.000396  0.000000      2.000000
 -0.000058  0.015531  0.000000      2.000000
  0.015042  0.015475  0.000000      2.000000
  0.030141  0.015418  0.000000      2.000000
  0.045241  0.015361  0.000000      2.000000
  0.060340  0.015305  0.000000      2.000000
  0.075440  0.015248  0.000000      2.000000
  0.090539  0.015192  0.000000      2.000000
  0.105639  0.015135  0.000000      2.000000
 -0.105754  0.015928  0.000000      2.000000
 -0.090655  0.015871  0.000000      2.000000
 -0.075555  0.015814  0.000000      2.000000
 -0.060456  0.015758  0.000000      2.000000
 -0.045356  0.015701  0.000000      2.000000
 -0.030257  0.015645  0.000000      2.000000
 -0.015157  0.015588  0.000000      2.000000
 -0.000116  0.031063  0.000000      2.000000
  0.014984  0.031006  0.000000      2.000000
  0.030083  0.030949  0.000000      2.000000
  0.045183  0.030893  0.000000      2.000000
  0.060282  0.030836  0.000000      2.000000
  0.075382  0.030779  0.000000      2.000000
  0.090481  0.030723  0.000000      2.000000
  0.105581  0.030666  0.000000      2.000000
 -0.105812  0.031459  0.000000      2.000000
 -0.090713  0.031402  0.000000      2.000000
 -0.075613  0.031346  0.000000      2.000000
 -0.060514  0.031289  0.000000      2.000000
 -0.045414  0.031232  0.000000      2.000000
 -0.030315  0.031176  0.000000      2.000000
 -0.015215  0.031119  0.000000      2.000000
 -0.000173  0.046594  0.000000      2.000000
  0.014926  0.046537  0.000000      2.000000
  0.030026  0.046481  0.000000      2.000000
  0.045125  0.046424  0.000000      2.000000
  0.060224  0.046367  0.000000      2.000000
  0.075324  0.046311  0.000000      2.000000
  0.090423  0.046254  0.000000      2.000000
  0.105523  0.046197  0.000000      2.000000
 -0.105870  0.046990  0.000000      2.000000
 -0.090770  0.046934  0.000000      2.000000
 -0.075671  0.046877  0.000000      2.000000
 -0.060571  0.046820  0.000000      2.000000
 -0.045472  0.046764  0.000000      2.000000
 -0.030372  0.046707  0.000000      2.000000
 -0.015273  0.046650  0.000000      2.000000
 -0.000231  0.062125  0.000000      2.000000
  0.014868  0.062068  0.000000      2.000000
  0.029968  0.062012  0.000000      2.000000
  0.045067  0.061955  0.000000      2.000000
  0.060167  0.061899  0.000000      2.000000
  0.075266  0.061842  0.000000      2.000000
  0.090366  0.061785  0.000000      2.000000
  0.105465  0.061729  0.000000      2.000000
 -0.105928  0.062521  0.000000      2.000000
 -0.090828  0.062465  0.000000      2.000000
 -0.075729  0.062408  0.000000      2.000000
 -0.060629  0.062352  0.000000      2.000000
 -0.045530  0.062295  0.000000      2.000000
 -0.030430  0.062238  0.000000      2.000000
 -0.015331  0.062182  0.000000      2.000000
 -0.000289  0.077656  0.000000      2.000000
  0.014810  0.077600  0.000000      2.000000
  0.029910  0.077543  0.000000      2.000000
  0.045009  0.077486  0.000000      2.000000
  0.060109  0.077430  0.000000      2.000000
  0.075208  0.077373  0.000000      2.000000
  0.090308  0.077317  0.000000      2.000000
  0.105407  0.077260  0.000000      2.000000
 -0.105985  0.078053  0.000000      2.000000
 -0.090886  0.077996  0.000000      2.000000
 -0.075786  0.077939  0.000000      2.000000
 -0.060687  0.077883  0.000000      2.000000
 -0.045587  0.077826  0.000000      2.000000
 -0.030488  0.077770  0.000000      2.000000
 -0.015389  0.077713  0.000000      2.000000
 -0.000347  0.093188  0.000000      2.000000
  0.014753  0.093131  0.000000      2.000000
  0.029852  0.093074  0.000000      2.000000
  0.044952  0.093018  0.000000      2.000000
  0.060051  0.092961  0.000000      2.000000
  0.075151  0.092904  0.000000      2.000000
  0.090250  0.092848  0.000000      2.000000
  0.105350  0.092791  0.000000      2.000000
 -0.106043  0.093584  0.000000      2.000000
 -0.090944  0.093527  0.000000      2.000000
 -0.075844  0.093471  0.000000      2.000000
 -0.060745  0.093414  0.000000      2.000000
 -0.045645  0.093357  0.000000      2.000000
 -0.030546  0.093301  0.000000      2.000000
 -0.015446  0.093244  0.000000      2.000000
 -0.000405  0.108719  0.000000      2.000000
  0.014695  0.108662  0.000000      2.000000
  0.029794  0.108606  0.000000      2.000000
  0.044894  0.108549  0.000000      2.000000
  0.059993  0.108492  0.000000      2.000000
  0.075093  0.108436  0.000000      2.000000
  0.090192  0.108379  0.000000      2.000000
  0.105292  0.108322  0.000000      2.000000
 -0.106101  0.109115  0.000000      2.000000
 -0.091002  0.109059  0.000000      2.000000
 -0.075902  0.109002  0.000000      2.000000
 -0.060803  0.108945  0.000000      2.000000
 -0.045703  0.108889  0.000000      2.000000
 -0.030604  0.108832  0.000000      2.000000
 -0.015504  0.108775  0.000000      2.000000
 


--------------------------------------------------------------------------------------------------------




 Dimension of arrays:
   k-points           NKPTS =    113   k-points in BZ     NKDIM =    113   number of bands    NBANDS=     14
   number of dos      NEDOS =    301   number of ions     NIONS =      4
   non local maximal  LDIM  =      5   non local SUM 2l+1 LMDIM =     13
   total plane-waves  NPLWV = 207360
   max r-space proj   IRMAX =      1   max aug-charges    IRDMAX=  52853
   dimension x,y,z NGX =    36 NGY =   36 NGZ =  160
   dimension x,y,z NGXF=    72 NGYF=   72 NGZF=  320
   support grid    NGXF=    72 NGYF=   72 NGZF=  320
   ions per type =               2   2
   NGX,Y,Z   is equivalent  to a cutoff of  13.55, 13.94, 13.30 a.u.
   NGXF,Y,Z  is equivalent  to a cutoff of  27.11, 27.89, 26.60 a.u.

 SYSTEM =  SnSe                                    
 POSCAR =   POSCAR with strain of 0.007            

 Startparameter for this run:
   NWRITE =      2    write-flag & timer
   PREC   = accura    normal or accurate (medium, high low for compatibility)
   ISTART =      0    job   : 0-new  1-cont  2-samecut
   ICHARG =      2    charge: 1-file 2-atom 10-const
   ISPIN  =      1    spin polarized calculation?
   LNONCOLLINEAR =      F non collinear calculations
   LSORBIT =      F    spin-orbit coupling
   INIWAV =      1    electr: 0-lowe 1-rand  2-diag
   LASPH  =      F    aspherical Exc in radial PAW
   METAGGA=      F    non-selfconsistent MetaGGA calc.

 Electronic Relaxation 1
   ENCUT  =  600.0 eV  44.10 Ry    6.64 a.u.   8.82  8.57 39.94*2*pi/ulx,y,z
   ENINI  =  600.0     initial cutoff
   ENAUG  =  446.8 eV  augmentation charge cutoff
   NELM   =     60;   NELMIN=  2; NELMDL= -5     # of ELM steps 
   EDIFF  = 0.1E-05   stopping-criterion for ELM
   LREAL  =      F    real-space projection
   NLSPLINE    = F    spline interpolate recip. space projectors
   LCOMPAT=      F    compatible to vasp.4.4
   GGA_COMPAT  = T    GGA compatible to vasp.4.4-vasp.4.6
   LMAXPAW     = -100 max onsite density
   LMAXMIX     =    2 max onsite mixed and CHGCAR
   VOSKOWN=      0    Vosko Wilk Nusair interpolation
   ROPT   =    0.00000   0.00000
 Ionic relaxation
   EDIFFG = -.1E-02   stopping-criterion for IOM
   NSW    =    100    number of steps for IOM
   NBLOCK =      1;   KBLOCK =    100    inner block; outer block 
   IBRION =      2    ionic relax: 0-MD 1-quasi-New 2-CG
   NFREE  =      1    steps in history (QN), initial steepest desc. (CG)
   ISIF   =      2    stress and relaxation
   IWAVPR =     11    prediction:  0-non 1-charg 2-wave 3-comb
   ISYM   =      2    0-nonsym 1-usesym 2-fastsym
   LCORR  =      T    Harris-Foulkes like correction to forces

   POTIM  = 0.5000    time-step for ionic-motion
   TEIN   =    0.0    initial temperature
   TEBEG  =    0.0;   TEEND  =   0.0 temperature during run
   SMASS  =  -3.00    Nose mass-parameter (am)
   estimated Nose-frequenzy (Omega)   =  0.10E-29 period in steps =****** mass=  -0.445E-27a.u.
   SCALEE = 1.0000    scale energy and forces
   NPACO  =    256;   APACO  = 16.0  distance and # of slots for P.C.
   PSTRESS=    0.0 pullay stress

  Mass of Ions in am
   POMASS = 118.71 78.96
  Ionic Valenz
   ZVAL   =   4.00  6.00
  Atomic Wigner-Seitz radii
   RWIGS  =  -1.00 -1.00
  virtual crystal weights 
   VCA    =   1.00  1.00
   NELECT =      20.0000    total number of electrons
   NUPDOWN=      -1.0000    fix difference up-down

 DOS related values:
   EMIN   =  10.00;   EMAX   =-10.00  energy-range for DOS
   EFERMI =   0.00
   ISMEAR =     0;   SIGMA  =   0.10  broadening in eV -4-tet -1-fermi 0-gaus

 Electronic relaxation 2 (details)
   IALGO  =     38    algorithm
   LDIAG  =      T    sub-space diagonalisation (order eigenvalues)
   LSUBROT=      F    optimize rotation matrix (better conditioning)
   TURBO    =      0    0=normal 1=particle mesh
   IRESTART =      0    0=no restart 2=restart with 2 vectors
   NREBOOT  =      0    no. of reboots
   NMIN     =      0    reboot dimension
   EREF     =   0.00    reference energy to select bands
   IMIX   =      4    mixing-type and parameters
     AMIX     =   0.40;   BMIX     =  1.00
     AMIX_MAG =   1.60;   BMIX_MAG =  1.00
     AMIN     =   0.10
     WC   =   100.;   INIMIX=   1;  MIXPRE=   1;  MAXMIX= -45

 Intra band minimization:
   WEIMIN = 0.0010     energy-eigenvalue tresh-hold
   EBREAK =  0.18E-07  absolut break condition
   DEPER  =   0.30     relativ break condition  

   TIME   =   0.40     timestep for ELM

  volume/ion in A,a.u.               =      94.76       639.47
  Fermi-wavevector in a.u.,A,eV,Ry     =   0.614030  1.160349  5.129851  0.377033
  Thomas-Fermi vector in A             =   1.670894
 
 Write flags
   LWAVE        =      T    write WAVECAR
   LDOWNSAMPLE  =      F    k-point downsampling of WAVECAR
   LCHARG       =      T    write CHGCAR
   LVTOT        =      F    write LOCPOT, total local potential
   LVHAR        =      F    write LOCPOT, Hartree potential only
   LELF         =      F    write electronic localiz. function (ELF)
   LORBIT       =      0    0 simple, 1 ext, 2 COOP (PROOUT), +10 PAW based schemes


 Dipole corrections
   LMONO  =      F    monopole corrections only (constant potential shift)
   LDIPOL =      F    correct potential (dipole corrections)
   IDIPOL =      0    1-x, 2-y, 3-z, 4-all directions 
   EPSILON=  1.0000000 bulk dielectric constant

 Exchange correlation treatment:
   GGA     =    PE    GGA type
   LEXCH   =     8    internal setting for exchange type
   VOSKOWN=      0    Vosko Wilk Nusair interpolation
   LHFCALC =     F    Hartree Fock is set to
   LHFONE  =     F    Hartree Fock one center treatment
   AEXX    =    0.0000 exact exchange contribution

 Linear response parameters
   LEPSILON=     F    determine dielectric tensor
   LRPA    =     F    only Hartree local field effects (RPA)
   LNABLA  =     F    use nabla operator in PAW spheres
   LVEL    =     F    velocity operator in full k-point grid
   LINTERFAST=   F  fast interpolation
   KINTER  =     0    interpolate to denser k-point grid
   CSHIFT  =0.1000    complex shift for real part using Kramers Kronig
   OMEGAMAX=  -1.0    maximum frequency
   DEG_THRESHOLD= 0.2000000E-02 threshold for treating states as degnerate
   RTIME   =   -0.100 relaxation time in fs
  (WPLASMAI=    0.000 imaginary part of plasma frequency in eV, 0.658/RTIME)
   DFIELD  = 0.0000000 0.0000000 0.0000000 field for delta impulse in time
 
 Orbital magnetization related:
   ORBITALMAG=     F  switch on orbital magnetization
   LCHIMAG   =     F  perturbation theory with respect to B field
   DQ        =  0.001000  dq finite difference perturbation B field
   LLRAUG    =     F  two centre corrections for induced B field



--------------------------------------------------------------------------------------------------------


 conjugate gradient relaxation of ions
 charge density and potential will be updated during run
 non-spin polarized calculation
 Variant of blocked Davidson
 Davidson routine will perform the subspace rotation
 perform sub-space diagonalisation
    after iterative eigenvector-optimisation
 modified Broyden-mixing scheme, WC =      100.0
 initial mixing is a Kerker type mixing with AMIX =  0.4000 and BMIX =      1.0000
 Hartree-type preconditioning will be used
 using additional bands            4
 reciprocal scheme for non local part
 use partial core corrections
 calculate Harris-corrections to forces 
   (improved forces if not selfconsistent)
 use gradient corrections 
 use of overlap-Matrix (Vanderbilt PP)
 Gauss-broadening in eV      SIGMA  =   0.10


--------------------------------------------------------------------------------------------------------


  energy-cutoff  :      600.00
  volume of cell :      379.04
      direct lattice vectors                 reciprocal lattice vectors
     4.415224441  0.016433838  0.000000000     0.226492214 -0.000849346  0.000000000
     0.016096792  4.292477857  0.000000000    -0.000867130  0.232968926  0.000000000
     0.000000000  0.000000000 20.000000000     0.000000000  0.000000000  0.050000000

  length of vectors
     4.415255025  4.292508039 20.000000000     0.226493806  0.232970540  0.050000000


 
 k-points in units of 2pi/SCALE and weight: KMesh Grid                              
   0.00000000  0.00000000  0.00000000       0.004
   0.01509948 -0.00005662  0.00000000       0.009
   0.03019896 -0.00011325  0.00000000       0.009
   0.04529844 -0.00016987  0.00000000       0.009
   0.06039792 -0.00022649  0.00000000       0.009
   0.07549740 -0.00028312  0.00000000       0.009
   0.09059689 -0.00033974  0.00000000       0.009
   0.10569637 -0.00039636  0.00000000       0.009
  -0.00005781  0.01553126  0.00000000       0.009
   0.01504167  0.01547464  0.00000000       0.009
   0.03014115  0.01541802  0.00000000       0.009
   0.04524063  0.01536139  0.00000000       0.009
   0.06034012  0.01530477  0.00000000       0.009
   0.07543960  0.01524815  0.00000000       0.009
   0.09053908  0.01519152  0.00000000       0.009
   0.10563856  0.01513490  0.00000000       0.009
  -0.10575418  0.01592762  0.00000000       0.009
  -0.09065469  0.01587100  0.00000000       0.009
  -0.07555521  0.01581438  0.00000000       0.009
  -0.06045573  0.01575775  0.00000000       0.009
  -0.04535625  0.01570113  0.00000000       0.009
  -0.03025677  0.01564451  0.00000000       0.009
  -0.01515729  0.01558788  0.00000000       0.009
  -0.00011562  0.03106252  0.00000000       0.009
   0.01498386  0.03100590  0.00000000       0.009
   0.03008334  0.03094928  0.00000000       0.009
   0.04518283  0.03089265  0.00000000       0.009
   0.06028231  0.03083603  0.00000000       0.009
   0.07538179  0.03077941  0.00000000       0.009
   0.09048127  0.03072279  0.00000000       0.009
   0.10558075  0.03066616  0.00000000       0.009
  -0.10581198  0.03145888  0.00000000       0.009
  -0.09071250  0.03140226  0.00000000       0.009
  -0.07561302  0.03134564  0.00000000       0.009
  -0.06051354  0.03128902  0.00000000       0.009
  -0.04541406  0.03123239  0.00000000       0.009
  -0.03031458  0.03117577  0.00000000       0.009
  -0.01521510  0.03111915  0.00000000       0.009
  -0.00017343  0.04659379  0.00000000       0.009
   0.01492605  0.04653716  0.00000000       0.009
   0.03002554  0.04648054  0.00000000       0.009
   0.04512502  0.04642392  0.00000000       0.009
   0.06022450  0.04636729  0.00000000       0.009
   0.07532398  0.04631067  0.00000000       0.009
   0.09042346  0.04625405  0.00000000       0.009
   0.10552294  0.04619742  0.00000000       0.009
  -0.10586979  0.04699015  0.00000000       0.009
  -0.09077031  0.04693352  0.00000000       0.009
  -0.07567083  0.04687690  0.00000000       0.009
  -0.06057135  0.04682028  0.00000000       0.009
  -0.04547187  0.04676365  0.00000000       0.009
  -0.03037239  0.04670703  0.00000000       0.009
  -0.01527291  0.04665041  0.00000000       0.009
  -0.00023123  0.06212505  0.00000000       0.009
   0.01486825  0.06206842  0.00000000       0.009
   0.02996773  0.06201180  0.00000000       0.009
   0.04506721  0.06195518  0.00000000       0.009
   0.06016669  0.06189855  0.00000000       0.009
   0.07526617  0.06184193  0.00000000       0.009
   0.09036565  0.06178531  0.00000000       0.009
   0.10546513  0.06172869  0.00000000       0.009
  -0.10592760  0.06252141  0.00000000       0.009
  -0.09082812  0.06246479  0.00000000       0.009
  -0.07572864  0.06240816  0.00000000       0.009
  -0.06062916  0.06235154  0.00000000       0.009
  -0.04552968  0.06229492  0.00000000       0.009
  -0.03043020  0.06223829  0.00000000       0.009
  -0.01533072  0.06218167  0.00000000       0.009
  -0.00028904  0.07765631  0.00000000       0.009
   0.01481044  0.07759969  0.00000000       0.009
   0.02990992  0.07754306  0.00000000       0.009
   0.04500940  0.07748644  0.00000000       0.009
   0.06010888  0.07742982  0.00000000       0.009
   0.07520836  0.07737319  0.00000000       0.009
   0.09030784  0.07731657  0.00000000       0.009
   0.10540732  0.07725995  0.00000000       0.009
  -0.10598541  0.07805267  0.00000000       0.009
  -0.09088593  0.07799605  0.00000000       0.009
  -0.07578645  0.07793942  0.00000000       0.009
  -0.06068697  0.07788280  0.00000000       0.009
  -0.04558749  0.07782618  0.00000000       0.009
  -0.03048801  0.07776955  0.00000000       0.009
  -0.01538852  0.07771293  0.00000000       0.009
  -0.00034685  0.09318757  0.00000000       0.009
   0.01475263  0.09313095  0.00000000       0.009
   0.02985211  0.09307432  0.00000000       0.009
   0.04495159  0.09301770  0.00000000       0.009
   0.06005107  0.09296108  0.00000000       0.009
   0.07515055  0.09290446  0.00000000       0.009
   0.09025003  0.09284783  0.00000000       0.009
   0.10534951  0.09279121  0.00000000       0.009
  -0.10604322  0.09358393  0.00000000       0.009
  -0.09094374  0.09352731  0.00000000       0.009
  -0.07584426  0.09347069  0.00000000       0.009
  -0.06074478  0.09341406  0.00000000       0.009
  -0.04564529  0.09335744  0.00000000       0.009
  -0.03054581  0.09330082  0.00000000       0.009
  -0.01544633  0.09324419  0.00000000       0.009
  -0.00040466  0.10871883  0.00000000       0.009
   0.01469482  0.10866221  0.00000000       0.009
   0.02979430  0.10860559  0.00000000       0.009
   0.04489378  0.10854896  0.00000000       0.009
   0.05999326  0.10849234  0.00000000       0.009
   0.07509274  0.10843572  0.00000000       0.009
   0.09019222  0.10837909  0.00000000       0.009
   0.10529171  0.10832247  0.00000000       0.009
  -0.10610103  0.10911519  0.00000000       0.009
  -0.09100155  0.10905857  0.00000000       0.009
  -0.07590207  0.10900195  0.00000000       0.009
  -0.06080258  0.10894532  0.00000000       0.009
  -0.04570310  0.10888870  0.00000000       0.009
  -0.03060362  0.10883208  0.00000000       0.009
  -0.01550414  0.10877546  0.00000000       0.009
 
 k-points in reciprocal lattice and weights: KMesh Grid                              
   0.00000000  0.00000000  0.00000000       0.004
   0.06666667 -0.00000000  0.00000000       0.009
   0.13333333 -0.00000000  0.00000000       0.009
   0.20000000 -0.00000000  0.00000000       0.009
   0.26666667 -0.00000000  0.00000000       0.009
   0.33333333  0.00000000  0.00000000       0.009
   0.40000000 -0.00000000  0.00000000       0.009
   0.46666667 -0.00000000  0.00000000       0.009
   0.00000000  0.06666667  0.00000000       0.009
   0.06666667  0.06666667  0.00000000       0.009
   0.13333333  0.06666667  0.00000000       0.009
   0.20000000  0.06666667  0.00000000       0.009
   0.26666667  0.06666667  0.00000000       0.009
   0.33333333  0.06666667  0.00000000       0.009
   0.40000000  0.06666667  0.00000000       0.009
   0.46666667  0.06666667  0.00000000       0.009
  -0.46666667  0.06666667  0.00000000       0.009
  -0.40000000  0.06666667  0.00000000       0.009
  -0.33333333  0.06666667  0.00000000       0.009
  -0.26666667  0.06666667  0.00000000       0.009
  -0.20000000  0.06666667  0.00000000       0.009
  -0.13333333  0.06666667  0.00000000       0.009
  -0.06666667  0.06666667  0.00000000       0.009
   0.00000000  0.13333333  0.00000000       0.009
   0.06666667  0.13333333  0.00000000       0.009
   0.13333333  0.13333333  0.00000000       0.009
   0.20000000  0.13333333  0.00000000       0.009
   0.26666667  0.13333333  0.00000000       0.009
   0.33333333  0.13333333  0.00000000       0.009
   0.40000000  0.13333333  0.00000000       0.009
   0.46666667  0.13333333  0.00000000       0.009
  -0.46666667  0.13333333  0.00000000       0.009
  -0.40000000  0.13333333  0.00000000       0.009
  -0.33333333  0.13333333  0.00000000       0.009
  -0.26666667  0.13333333  0.00000000       0.009
  -0.20000000  0.13333333  0.00000000       0.009
  -0.13333333  0.13333333  0.00000000       0.009
  -0.06666667  0.13333333  0.00000000       0.009
   0.00000000  0.20000000  0.00000000       0.009
   0.06666667  0.20000000  0.00000000       0.009
   0.13333333  0.20000000  0.00000000       0.009
   0.20000000  0.20000000  0.00000000       0.009
   0.26666667  0.20000000  0.00000000       0.009
   0.33333333  0.20000000  0.00000000       0.009
   0.40000000  0.20000000  0.00000000       0.009
   0.46666667  0.20000000  0.00000000       0.009
  -0.46666667  0.20000000  0.00000000       0.009
  -0.40000000  0.20000000  0.00000000       0.009
  -0.33333333  0.20000000  0.00000000       0.009
  -0.26666667  0.20000000  0.00000000       0.009
  -0.20000000  0.20000000  0.00000000       0.009
  -0.13333333  0.20000000  0.00000000       0.009
  -0.06666667  0.20000000  0.00000000       0.009
  -0.00000000  0.26666667  0.00000000       0.009
   0.06666667  0.26666667  0.00000000       0.009
   0.13333333  0.26666667  0.00000000       0.009
   0.20000000  0.26666667  0.00000000       0.009
   0.26666667  0.26666667  0.00000000       0.009
   0.33333333  0.26666667  0.00000000       0.009
   0.40000000  0.26666667  0.00000000       0.009
   0.46666667  0.26666667  0.00000000       0.009
  -0.46666667  0.26666667  0.00000000       0.009
  -0.40000000  0.26666667  0.00000000       0.009
  -0.33333333  0.26666667  0.00000000       0.009
  -0.26666667  0.26666667  0.00000000       0.009
  -0.20000000  0.26666667  0.00000000       0.009
  -0.13333333  0.26666667  0.00000000       0.009
  -0.06666667  0.26666667  0.00000000       0.009
   0.00000000  0.33333333  0.00000000       0.009
   0.06666667  0.33333333  0.00000000       0.009
   0.13333333  0.33333333  0.00000000       0.009
   0.20000000  0.33333333  0.00000000       0.009
   0.26666667  0.33333333  0.00000000       0.009
   0.33333333  0.33333333  0.00000000       0.009
   0.40000000  0.33333333  0.00000000       0.009
   0.46666667  0.33333333  0.00000000       0.009
  -0.46666667  0.33333333  0.00000000       0.009
  -0.40000000  0.33333333  0.00000000       0.009
  -0.33333333  0.33333333  0.00000000       0.009
  -0.26666667  0.33333333  0.00000000       0.009
  -0.20000000  0.33333333  0.00000000       0.009
  -0.13333333  0.33333333  0.00000000       0.009
  -0.06666667  0.33333333  0.00000000       0.009
   0.00000000  0.40000000  0.00000000       0.009
   0.06666667  0.40000000  0.00000000       0.009
   0.13333333  0.40000000  0.00000000       0.009
   0.20000000  0.40000000  0.00000000       0.009
   0.26666667  0.40000000  0.00000000       0.009
   0.33333333  0.40000000  0.00000000       0.009
   0.40000000  0.40000000  0.00000000       0.009
   0.46666667  0.40000000  0.00000000       0.009
  -0.46666667  0.40000000  0.00000000       0.009
  -0.40000000  0.40000000  0.00000000       0.009
  -0.33333333  0.40000000  0.00000000       0.009
  -0.26666667  0.40000000  0.00000000       0.009
  -0.20000000  0.40000000  0.00000000       0.009
  -0.13333333  0.40000000  0.00000000       0.009
  -0.06666667  0.40000000  0.00000000       0.009
   0.00000000  0.46666667  0.00000000       0.009
   0.06666667  0.46666667  0.00000000       0.009
   0.13333333  0.46666667  0.00000000       0.009
   0.20000000  0.46666667  0.00000000       0.009
   0.26666667  0.46666667  0.00000000       0.009
   0.33333333  0.46666667  0.00000000       0.009
   0.40000000  0.46666667  0.00000000       0.009
   0.46666667  0.46666667  0.00000000       0.009
  -0.46666667  0.46666667  0.00000000       0.009
  -0.40000000  0.46666667  0.00000000       0.009
  -0.33333333  0.46666667  0.00000000       0.009
  -0.26666667  0.46666667  0.00000000       0.009
  -0.20000000  0.46666667  0.00000000       0.009
  -0.13333333  0.46666667  0.00000000       0.009
  -0.06666667  0.46666667  0.00000000       0.009
 
 position of ions in fractional coordinates (direct lattice) 
   0.58124336  0.75000000  0.56874314
   0.08124336  0.25000000  0.43125686
   0.03286064  0.25000000  0.56707387
   0.53286061  0.75000000  0.43292613
 
 position of ions in cartesian coordinates  (Angst):
   2.57839247  3.22891045 11.37486283
   0.36273186  1.07445460  8.62513717
   0.14911131  1.07365949 11.34147733
   2.36477180  3.22811534  8.65852267
 


--------------------------------------------------------------------------------------------------------


 k-point  1 :   0.0000 0.0000 0.0000  plane waves:   12687
 k-point  2 :   0.0667-0.0000 0.0000  plane waves:   12698
 k-point  3 :   0.1333-0.0000 0.0000  plane waves:   12674
 k-point  4 :   0.2000-0.0000 0.0000  plane waves:   12649
 k-point  5 :   0.2667-0.0000 0.0000  plane waves:   12644
 k-point  6 :   0.3333 0.0000 0.0000  plane waves:   12665
 k-point  7 :   0.4000-0.0000 0.0000  plane waves:   12684
 k-point  8 :   0.4667-0.0000 0.0000  plane waves:   12694
 k-point  9 :   0.0000 0.0667 0.0000  plane waves:   12673
 k-point 10 :   0.0667 0.0667 0.0000  plane waves:   12664
 k-point 11 :   0.1333 0.0667 0.0000  plane waves:   12663
 k-point 12 :   0.2000 0.0667 0.0000  plane waves:   12650
 k-point 13 :   0.2667 0.0667 0.0000  plane waves:   12644
 k-point 14 :   0.3333 0.0667 0.0000  plane waves:   12654
 k-point 15 :   0.4000 0.0667 0.0000  plane waves:   12679
 k-point 16 :   0.4667 0.0667 0.0000  plane waves:   12700
 k-point 17 :  -0.4667 0.0667 0.0000  plane waves:   12688
 k-point 18 :  -0.4000 0.0667 0.0000  plane waves:   12680
 k-point 19 :  -0.3333 0.0667 0.0000  plane waves:   12690
 k-point 20 :  -0.2667 0.0667 0.0000  plane waves:   12671
 k-point 21 :  -0.2000 0.0667 0.0000  plane waves:   12653
 k-point 22 :  -0.1333 0.0667 0.0000  plane waves:   12672
 k-point 23 :  -0.0667 0.0667 0.0000  plane waves:   12679
 k-point 24 :   0.0000 0.1333 0.0000  plane waves:   12659
 k-point 25 :   0.0667 0.1333 0.0000  plane waves:   12665
 k-point 26 :   0.1333 0.1333 0.0000  plane waves:   12653
 k-point 27 :   0.2000 0.1333 0.0000  plane waves:   12623
 k-point 28 :   0.2667 0.1333 0.0000  plane waves:   12640
 k-point 29 :   0.3333 0.1333 0.0000  plane waves:   12652
 k-point 30 :   0.4000 0.1333 0.0000  plane waves:   12662
 k-point 31 :   0.4667 0.1333 0.0000  plane waves:   12674
 k-point 32 :  -0.4667 0.1333 0.0000  plane waves:   12684
 k-point 33 :  -0.4000 0.1333 0.0000  plane waves:   12684
 k-point 34 :  -0.3333 0.1333 0.0000  plane waves:   12662
 k-point 35 :  -0.2667 0.1333 0.0000  plane waves:   12663
 k-point 36 :  -0.2000 0.1333 0.0000  plane waves:   12654
 k-point 37 :  -0.1333 0.1333 0.0000  plane waves:   12644
 k-point 38 :  -0.0667 0.1333 0.0000  plane waves:   12649
 k-point 39 :   0.0000 0.2000 0.0000  plane waves:   12656
 k-point 40 :   0.0667 0.2000 0.0000  plane waves:   12637
 k-point 41 :   0.1333 0.2000 0.0000  plane waves:   12645
 k-point 42 :   0.2000 0.2000 0.0000  plane waves:   12645
 k-point 43 :   0.2667 0.2000 0.0000  plane waves:   12641
 k-point 44 :   0.3333 0.2000 0.0000  plane waves:   12637
 k-point 45 :   0.4000 0.2000 0.0000  plane waves:   12677
 k-point 46 :   0.4667 0.2000 0.0000  plane waves:   12689
 k-point 47 :  -0.4667 0.2000 0.0000  plane waves:   12671
 k-point 48 :  -0.4000 0.2000 0.0000  plane waves:   12686
 k-point 49 :  -0.3333 0.2000 0.0000  plane waves:   12672
 k-point 50 :  -0.2667 0.2000 0.0000  plane waves:   12653
 k-point 51 :  -0.2000 0.2000 0.0000  plane waves:   12663
 k-point 52 :  -0.1333 0.2000 0.0000  plane waves:   12648
 k-point 53 :  -0.0667 0.2000 0.0000  plane waves:   12655
 k-point 54 :  -0.0000 0.2667 0.0000  plane waves:   12640
 k-point 55 :   0.0667 0.2667 0.0000  plane waves:   12641
 k-point 56 :   0.1333 0.2667 0.0000  plane waves:   12630
 k-point 57 :   0.2000 0.2667 0.0000  plane waves:   12645
 k-point 58 :   0.2667 0.2667 0.0000  plane waves:   12654
 k-point 59 :   0.3333 0.2667 0.0000  plane waves:   12652
 k-point 60 :   0.4000 0.2667 0.0000  plane waves:   12667
 k-point 61 :   0.4667 0.2667 0.0000  plane waves:   12663
 k-point 62 :  -0.4667 0.2667 0.0000  plane waves:   12683
 k-point 63 :  -0.4000 0.2667 0.0000  plane waves:   12659
 k-point 64 :  -0.3333 0.2667 0.0000  plane waves:   12664
 k-point 65 :  -0.2667 0.2667 0.0000  plane waves:   12657
 k-point 66 :  -0.2000 0.2667 0.0000  plane waves:   12656
 k-point 67 :  -0.1333 0.2667 0.0000  plane waves:   12639
 k-point 68 :  -0.0667 0.2667 0.0000  plane waves:   12635
 k-point 69 :   0.0000 0.3333 0.0000  plane waves:   12618
 k-point 70 :   0.0667 0.3333 0.0000  plane waves:   12623
 k-point 71 :   0.1333 0.3333 0.0000  plane waves:   12618
 k-point 72 :   0.2000 0.3333 0.0000  plane waves:   12636
 k-point 73 :   0.2667 0.3333 0.0000  plane waves:   12635
 k-point 74 :   0.3333 0.3333 0.0000  plane waves:   12646
 k-point 75 :   0.4000 0.3333 0.0000  plane waves:   12648
 k-point 76 :   0.4667 0.3333 0.0000  plane waves:   12660
 k-point 77 :  -0.4667 0.3333 0.0000  plane waves:   12668
 k-point 78 :  -0.4000 0.3333 0.0000  plane waves:   12661
 k-point 79 :  -0.3333 0.3333 0.0000  plane waves:   12632
 k-point 80 :  -0.2667 0.3333 0.0000  plane waves:   12647
 k-point 81 :  -0.2000 0.3333 0.0000  plane waves:   12638
 k-point 82 :  -0.1333 0.3333 0.0000  plane waves:   12627
 k-point 83 :  -0.0667 0.3333 0.0000  plane waves:   12611
 k-point 84 :   0.0000 0.4000 0.0000  plane waves:   12608
 k-point 85 :   0.0667 0.4000 0.0000  plane waves:   12607
 k-point 86 :   0.1333 0.4000 0.0000  plane waves:   12614
 k-point 87 :   0.2000 0.4000 0.0000  plane waves:   12628
 k-point 88 :   0.2667 0.4000 0.0000  plane waves:   12634
 k-point 89 :   0.3333 0.4000 0.0000  plane waves:   12643
 k-point 90 :   0.4000 0.4000 0.0000  plane waves:   12650
 k-point 91 :   0.4667 0.4000 0.0000  plane waves:   12648
 k-point 92 :  -0.4667 0.4000 0.0000  plane waves:   12633
 k-point 93 :  -0.4000 0.4000 0.0000  plane waves:   12646
 k-point 94 :  -0.3333 0.4000 0.0000  plane waves:   12640
 k-point 95 :  -0.2667 0.4000 0.0000  plane waves:   12643
 k-point 96 :  -0.2000 0.4000 0.0000  plane waves:   12630
 k-point 97 :  -0.1333 0.4000 0.0000  plane waves:   12621
 k-point 98 :  -0.0667 0.4000 0.0000  plane waves:   12602
 k-point 99 :   0.0000 0.4667 0.0000  plane waves:   12624
 k-point ** :   0.0667 0.4667 0.0000  plane waves:   12601
 k-point ** :   0.1333 0.4667 0.0000  plane waves:   12611
 k-point ** :   0.2000 0.4667 0.0000  plane waves:   12612
 k-point ** :   0.2667 0.4667 0.0000  plane waves:   12630
 k-point ** :   0.3333 0.4667 0.0000  plane waves:   12640
 k-point ** :   0.4000 0.4667 0.0000  plane waves:   12635
 k-point ** :   0.4667 0.4667 0.0000  plane waves:   12627
 k-point ** :  -0.4667 0.4667 0.0000  plane waves:   12641
 k-point ** :  -0.4000 0.4667 0.0000  plane waves:   12636
 k-point ** :  -0.3333 0.4667 0.0000  plane waves:   12622
 k-point ** :  -0.2667 0.4667 0.0000  plane waves:   12621
 k-point ** :  -0.2000 0.4667 0.0000  plane waves:   12631
 k-point ** :  -0.1333 0.4667 0.0000  plane waves:   12602
 k-point ** :  -0.0667 0.4667 0.0000  plane waves:   12612

 maximum and minimum number of plane-waves per node :       549      511

 maximum number of plane-waves:     12700
 maximum index in each direction: 
   IXMAX=    9   IYMAX=    8   IZMAX=   39
   IXMIN=   -9   IYMIN=   -9   IZMIN=  -39


 parallel 3D FFT for wavefunctions:
    minimum data exchange during FFTs selected (reduces bandwidth)
 parallel 3D FFT for charge:
    minimum data exchange during FFTs selected (reduces bandwidth)


 total amount of memory used by VASP MPI-rank0    63953. kBytes
=======================================================================

   base      :      30000. kBytes
   nonl-proj :      12820. kBytes
   fftplans  :       2678. kBytes
   grid      :       4349. kBytes
   one-center:          8. kBytes
   wavefun   :      14098. kBytes
 
     INWAV:  cpu time    0.0001: real time    0.0069
 Broyden mixing: mesh for mixing (old mesh)
   NGX = 17   NGY = 17   NGZ = 79
  (NGX  = 72   NGY  = 72   NGZ  =320)
  gives a total of  22831 points

 initial charge density was supplied:
 charge density of overlapping atoms calculated
 number of electron      20.0000000 magnetization 
 keeping initial charge density in first step


--------------------------------------------------------------------------------------------------------


 Maximum index for augmentation-charges         2212 (set IRDMAX)


--------------------------------------------------------------------------------------------------------


 First call to EWALD:  gamma=   0.245
 Maximum number of real-space cells 4x 4x 1
 Maximum number of reciprocal cells 2x 2x 7

    FEWALD:  cpu time    0.0028: real time    0.0028


--------------------------------------- Iteration      1(   1)  ---------------------------------------


    POTLOK:  cpu time    0.0512: real time    0.1667
    SETDIJ:  cpu time    0.0047: real time    0.0053
     EDDAV:  cpu time    2.6051: real time    2.6127
       DOS:  cpu time    0.0042: real time    0.0044
    --------------------------------------------
      LOOP:  cpu time    2.6652: real time    2.7891

 eigenvalue-minimisations  :  3164
 total energy-change (2. order) : 0.1430222E+03  (-0.6278776E+03)
 number of electron      20.0000000 magnetization 
 augmentation part       20.0000000 magnetization 

 Free energy of the ion-electron system (eV)
  ---------------------------------------------------
  alpha Z        PSCENC =         9.43359822
  Ewald energy   TEWEN  =      1140.79873824
  -Hartree energ DENC   =     -1742.53757832
  -exchange      EXHF   =         0.00000000
  -V(xc)+E(xc)   XCENC  =      -238.63815327
  PAW double counting   =       799.43158084     -524.17639913
  entropy T*S    EENTRO =        -0.00887632
  eigenvalues    EBANDS =        -3.70858600
  atomic energy  EATOM  =       702.42789710
  Solvation  Ediel_sol  =         0.00000000
  ---------------------------------------------------
  free energy    TOTEN  =       143.02222136 eV

  energy without entropy =      143.03109768  energy(sigma->0) =      143.02665952


--------------------------------------------------------------------------------------------------------




--------------------------------------- Iteration      1(   2)  ---------------------------------------


     EDDAV:  cpu time    3.7009: real time    3.7072
       DOS:  cpu time    0.0045: real time    0.0045
    --------------------------------------------
      LOOP:  cpu time    3.7054: real time    3.7117

 eigenvalue-minimisations  :  5112
 total energy-change (2. order) :-0.1380975E+03  (-0.1334044E+03)
 number of electron      20.0000000 magnetization 
 augmentation part       20.0000000 magnetization 

 Free energy of the ion-electron system (eV)
  ---------------------------------------------------
  alpha Z        PSCENC =         9.43359822
  Ewald energy   TEWEN  =      1140.79873824
  -Hartree energ DENC   =     -1742.53757832
  -exchange      EXHF   =         0.00000000
  -V(xc)+E(xc)   XCENC  =      -238.63815327
  PAW double counting   =       799.43158084     -524.17639913
  entropy T*S    EENTRO =        -0.00258668
  eigenvalues    EBANDS =      -141.81232744
  atomic energy  EATOM  =       702.42789710
  Solvation  Ediel_sol  =         0.00000000
  ---------------------------------------------------
  free energy    TOTEN  =         4.92476956 eV

  energy without entropy =        4.92735623  energy(sigma->0) =        4.92606290


--------------------------------------------------------------------------------------------------------




--------------------------------------- Iteration      1(   3)  ---------------------------------------


     EDDAV:  cpu time    3.0324: real time    3.0374
       DOS:  cpu time    0.0029: real time    0.0029
    --------------------------------------------
      LOOP:  cpu time    3.0352: real time    3.0402

 eigenvalue-minimisations  :  3938
 total energy-change (2. order) :-0.2086735E+02  (-0.2061873E+02)
 number of electron      20.0000000 magnetization 
 augmentation part       20.0000000 magnetization 

 Free energy of the ion-electron system (eV)
  ---------------------------------------------------
  alpha Z        PSCENC =         9.43359822
  Ewald energy   TEWEN  =      1140.79873824
  -Hartree energ DENC   =     -1742.53757832
  -exchange      EXHF   =         0.00000000
  -V(xc)+E(xc)   XCENC  =      -238.63815327
  PAW double counting   =       799.43158084     -524.17639913
  entropy T*S    EENTRO =        -0.00000000
  eigenvalues    EBANDS =      -162.68226148
  atomic energy  EATOM  =       702.42789710
  Solvation  Ediel_sol  =         0.00000000
  ---------------------------------------------------
  free energy    TOTEN  =       -15.94257780 eV

  energy without entropy =      -15.94257780  energy(sigma->0) =      -15.94257780


--------------------------------------------------------------------------------------------------------




--------------------------------------- Iteration      1(   4)  ---------------------------------------


     EDDAV:  cpu time    3.3639: real time    3.3696
       DOS:  cpu time    0.0031: real time    0.0031
    --------------------------------------------
      LOOP:  cpu time    3.3669: real time    3.3727

 eigenvalue-minimisations  :  4594
 total energy-change (2. order) :-0.8402116E+00  (-0.8372354E+00)
 number of electron      20.0000000 magnetization 
 augmentation part       20.0000000 magnetization 

 Free energy of the ion-electron system (eV)
  ---------------------------------------------------
  alpha Z        PSCENC =         9.43359822
  Ewald energy   TEWEN  =      1140.79873824
  -Hartree energ DENC   =     -1742.53757832
  -exchange      EXHF   =         0.00000000
  -V(xc)+E(xc)   XCENC  =      -238.63815327
  PAW double counting   =       799.43158084     -524.17639913
  entropy T*S    EENTRO =        -0.00000000
  eigenvalues    EBANDS =      -163.52247306
  atomic energy  EATOM  =       702.42789710
  Solvation  Ediel_sol  =         0.00000000
  ---------------------------------------------------
  free energy    TOTEN  =       -16.78278938 eV

  energy without entropy =      -16.78278938  energy(sigma->0) =      -16.78278938


--------------------------------------------------------------------------------------------------------




--------------------------------------- Iteration      1(   5)  ---------------------------------------


     EDDAV:  cpu time    3.0837: real time    3.0885
       DOS:  cpu time    0.0031: real time    0.0031
    CHARGE:  cpu time    0.2102: real time    0.2105
    MIXING:  cpu time    0.0019: real time    0.0100
    --------------------------------------------
      LOOP:  cpu time    3.2989: real time    3.3121

 eigenvalue-minimisations  :  3990
 total energy-change (2. order) :-0.1889517E-01  (-0.1888331E-01)
 number of electron      20.0000001 magnetization 
 augmentation part       -4.5210988 magnetization 

 Broyden mixing:
  rms(total) = 0.44828E+00    rms(broyden)= 0.44828E+00
  rms(prec ) = 0.48980E+00
  weight for this iteration     100.00

 Free energy of the ion-electron system (eV)
  ---------------------------------------------------
  alpha Z        PSCENC =         9.43359822
  Ewald energy   TEWEN  =      1140.79873824
  -Hartree energ DENC   =     -1742.53757832
  -exchange      EXHF   =         0.00000000
  -V(xc)+E(xc)   XCENC  =      -238.63815327
  PAW double counting   =       799.43158084     -524.17639913
  entropy T*S    EENTRO =        -0.00000000
  eigenvalues    EBANDS =      -163.54136823
  atomic energy  EATOM  =       702.42789710
  Solvation  Ediel_sol  =         0.00000000
  ---------------------------------------------------
  free energy    TOTEN  =       -16.80168455 eV

  energy without entropy =      -16.80168455  energy(sigma->0) =      -16.80168455


--------------------------------------------------------------------------------------------------------




--------------------------------------- Iteration      1(   6)  ---------------------------------------


    POTLOK:  cpu time    0.0459: real time    0.0460
    SETDIJ:  cpu time    0.0039: real time    0.0039
     EDDAV:  cpu time    3.0811: real time    3.0866
       DOS:  cpu time    0.0031: real time    0.0031
    CHARGE:  cpu time    0.2136: real time    0.2139
    MIXING:  cpu time    0.0020: real time    0.0023
    --------------------------------------------
      LOOP:  cpu time    3.3496: real time    3.3557

 eigenvalue-minimisations  :  3978
 total energy-change (2. order) : 0.4997312E+00  (-0.1276045E+00)
 number of electron      20.0000001 magnetization 
 augmentation part       -4.4881653 magnetization 

 Broyden mixing:
  rms(total) = 0.27422E+00    rms(broyden)= 0.27422E+00
  rms(prec ) = 0.28346E+00
  weight for this iteration     100.00

 eigenvalues of (default mixing * dielectric matrix)
  average eigenvalue GAMMA=   1.7761
  1.7761

 Free energy of the ion-electron system (eV)
  ---------------------------------------------------
  alpha Z        PSCENC =         9.43359822
  Ewald energy   TEWEN  =      1140.79873824
  -Hartree energ DENC   =     -1750.44486389
  -exchange      EXHF   =         0.00000000
  -V(xc)+E(xc)   XCENC  =      -238.15305891
  PAW double counting   =       922.54158763     -647.46444117
  entropy T*S    EENTRO =        -0.00000000
  eigenvalues    EBANDS =      -155.44141058
  atomic energy  EATOM  =       702.42789710
  Solvation  Ediel_sol  =         0.00000000
  ---------------------------------------------------
  free energy    TOTEN  =       -16.30195337 eV

  energy without entropy =      -16.30195337  energy(sigma->0) =      -16.30195337


--------------------------------------------------------------------------------------------------------




--------------------------------------- Iteration      1(   7)  ---------------------------------------


    POTLOK:  cpu time    0.0477: real time    0.0478
    SETDIJ:  cpu time    0.0039: real time    0.0039
     EDDAV:  cpu time    3.0290: real time    3.0344
       DOS:  cpu time    0.0031: real time    0.0031
    CHARGE:  cpu time    0.2093: real time    0.2096
    MIXING:  cpu time    0.0020: real time    0.0021
    --------------------------------------------
      LOOP:  cpu time    3.2950: real time    3.3011

 eigenvalue-minimisations  :  3992
 total energy-change (2. order) : 0.2656746E-01  (-0.3134075E-01)
 number of electron      20.0000001 magnetization 
 augmentation part       -4.4806005 magnetization 

 Broyden mixing:
  rms(total) = 0.10569E+00    rms(broyden)= 0.10569E+00
  rms(prec ) = 0.11109E+00
  weight for this iteration     100.00

 eigenvalues of (default mixing * dielectric matrix)
  average eigenvalue GAMMA=   1.7267
  1.3699  2.0835

 Free energy of the ion-electron system (eV)
  ---------------------------------------------------
  alpha Z        PSCENC =         9.43359822
  Ewald energy   TEWEN  =      1140.79873824
  -Hartree energ DENC   =     -1755.35637931
  -exchange      EXHF   =         0.00000000
  -V(xc)+E(xc)   XCENC  =      -237.83437853
  PAW double counting   =      1059.65048072     -784.70571144
  entropy T*S    EENTRO =        -0.00000000
  eigenvalues    EBANDS =      -150.68963090
  atomic energy  EATOM  =       702.42789710
  Solvation  Ediel_sol  =         0.00000000
  ---------------------------------------------------
  free energy    TOTEN  =       -16.27538591 eV

  energy without entropy =      -16.27538591  energy(sigma->0) =      -16.27538591


--------------------------------------------------------------------------------------------------------




--------------------------------------- Iteration      1(   8)  ---------------------------------------


    POTLOK:  cpu time    0.0478: real time    0.0480
    SETDIJ:  cpu time    0.0039: real time    0.0039
     EDDAV:  cpu time    3.3350: real time    3.3417
       DOS:  cpu time    0.0032: real time    0.0032
    CHARGE:  cpu time    0.2081: real time    0.2083
    MIXING:  cpu time    0.0018: real time    0.0018
    --------------------------------------------
      LOOP:  cpu time    3.5998: real time    3.6069

 eigenvalue-minimisations  :  4504
 total energy-change (2. order) : 0.9394744E-02  (-0.3849017E-02)
 number of electron      20.0000001 magnetization 
 augmentation part       -4.4848730 magnetization 

 Broyden mixing:
  rms(total) = 0.20446E-01    rms(broyden)= 0.20446E-01
  rms(prec ) = 0.27890E-01
  weight for this iteration     100.00

 eigenvalues of (default mixing * dielectric matrix)
  average eigenvalue GAMMA=   1.6934
  2.5139  1.2831  1.2831

 Free energy of the ion-electron system (eV)
  ---------------------------------------------------
  alpha Z        PSCENC =         9.43359822
  Ewald energy   TEWEN  =      1140.79873824
  -Hartree energ DENC   =     -1757.06179388
  -exchange      EXHF   =         0.00000000
  -V(xc)+E(xc)   XCENC  =      -237.75443157
  PAW double counting   =      1125.67400975     -850.76709025
  entropy T*S    EENTRO =        -0.00000000
  eigenvalues    EBANDS =      -149.01691877
  atomic energy  EATOM  =       702.42789710
  Solvation  Ediel_sol  =         0.00000000
  ---------------------------------------------------
  free energy    TOTEN  =       -16.26599117 eV

  energy without entropy =      -16.26599117  energy(sigma->0) =      -16.26599117


--------------------------------------------------------------------------------------------------------




--------------------------------------- Iteration      1(   9)  ---------------------------------------


    POTLOK:  cpu time    0.0464: real time    0.0465
    SETDIJ:  cpu time    0.0039: real time    0.0039
     EDDAV:  cpu time    3.2166: real time    3.2224
       DOS:  cpu time    0.0031: real time    0.0031
    CHARGE:  cpu time    0.2215: real time    0.2217
    MIXING:  cpu time    0.0019: real time    0.0020
    --------------------------------------------
      LOOP:  cpu time    3.4935: real time    3.4996

 eigenvalue-minimisations  :  4298
 total energy-change (2. order) : 0.3689561E-02  (-0.6759679E-03)
 number of electron      20.0000001 magnetization 
 augmentation part       -4.4830039 magnetization 

 Broyden mixing:
  rms(total) = 0.10011E-01    rms(broyden)= 0.10011E-01
  rms(prec ) = 0.15641E-01
  weight for this iteration     100.00

 eigenvalues of (default mixing * dielectric matrix)
  average eigenvalue GAMMA=   1.7219
  2.2554  2.2554  1.1885  1.1885

 Free energy of the ion-electron system (eV)
  ---------------------------------------------------
  alpha Z        PSCENC =         9.43359822
  Ewald energy   TEWEN  =      1140.79873824
  -Hartree energ DENC   =     -1759.00368634
  -exchange      EXHF   =         0.00000000
  -V(xc)+E(xc)   XCENC  =      -237.68179581
  PAW double counting   =      1143.27838588     -868.38296658
  entropy T*S    EENTRO =        -0.00000000
  eigenvalues    EBANDS =      -147.13247231
  atomic energy  EATOM  =       702.42789710
  Solvation  Ediel_sol  =         0.00000000
  ---------------------------------------------------
  free energy    TOTEN  =       -16.26230160 eV

  energy without entropy =      -16.26230160  energy(sigma->0) =      -16.26230160


--------------------------------------------------------------------------------------------------------




--------------------------------------- Iteration      1(  10)  ---------------------------------------


    POTLOK:  cpu time    0.0467: real time    0.0468
    SETDIJ:  cpu time    0.0040: real time    0.0040
     EDDAV:  cpu time    3.2042: real time    3.2100
       DOS:  cpu time    0.0031: real time    0.0031
    CHARGE:  cpu time    0.2172: real time    0.2175
    MIXING:  cpu time    0.0019: real time    0.0019
    --------------------------------------------
      LOOP:  cpu time    3.4770: real time    3.4833

 eigenvalue-minimisations  :  4340
 total energy-change (2. order) : 0.1344189E-02  (-0.1305494E-03)
 number of electron      20.0000001 magnetization 
 augmentation part       -4.4817377 magnetization 

 Broyden mixing:
  rms(total) = 0.50170E-02    rms(broyden)= 0.50170E-02
  rms(prec ) = 0.92680E-02
  weight for this iteration     100.00

 eigenvalues of (default mixing * dielectric matrix)
  average eigenvalue GAMMA=   1.8517
  3.3054  2.5965  1.2266  1.2266  0.9035

 Free energy of the ion-electron system (eV)
  ---------------------------------------------------
  alpha Z        PSCENC =         9.43359822
  Ewald energy   TEWEN  =      1140.79873824
  -Hartree energ DENC   =     -1760.30639290
  -exchange      EXHF   =         0.00000000
  -V(xc)+E(xc)   XCENC  =      -237.66969758
  PAW double counting   =      1133.19749068     -858.29220081
  entropy T*S    EENTRO =        -0.00000000
  eigenvalues    EBANDS =      -145.85039036
  atomic energy  EATOM  =       702.42789710
  Solvation  Ediel_sol  =         0.00000000
  ---------------------------------------------------
  free energy    TOTEN  =       -16.26095742 eV

  energy without entropy =      -16.26095742  energy(sigma->0) =      -16.26095742


--------------------------------------------------------------------------------------------------------




--------------------------------------- Iteration      1(  11)  ---------------------------------------


    POTLOK:  cpu time    0.0461: real time    0.0462
    SETDIJ:  cpu time    0.0039: real time    0.0039
     EDDAV:  cpu time    3.2347: real time    3.2408
       DOS:  cpu time    0.0031: real time    0.0031
    CHARGE:  cpu time    0.2078: real time    0.2080
    MIXING:  cpu time    0.0019: real time    0.0019
    --------------------------------------------
      LOOP:  cpu time    3.4975: real time    3.5038

 eigenvalue-minimisations  :  4328
 total energy-change (2. order) : 0.7187477E-03  (-0.1205108E-03)
 number of electron      20.0000001 magnetization 
 augmentation part       -4.4803853 magnetization 

 Broyden mixing:
  rms(total) = 0.32134E-02    rms(broyden)= 0.32134E-02
  rms(prec ) = 0.49855E-02
  weight for this iteration     100.00

 eigenvalues of (default mixing * dielectric matrix)
  average eigenvalue GAMMA=   1.8284
  3.3945  2.3970  1.9212  1.1829  1.1829  0.8921

 Free energy of the ion-electron system (eV)
  ---------------------------------------------------
  alpha Z        PSCENC =         9.43359822
  Ewald energy   TEWEN  =      1140.79873824
  -Hartree energ DENC   =     -1761.86372972
  -exchange      EXHF   =         0.00000000
  -V(xc)+E(xc)   XCENC  =      -237.63862446
  PAW double counting   =      1134.74836754     -859.84216378
  entropy T*S    EENTRO =        -0.00000000
  eigenvalues    EBANDS =      -144.32432180
  atomic energy  EATOM  =       702.42789710
  Solvation  Ediel_sol  =         0.00000000
  ---------------------------------------------------
  free energy    TOTEN  =       -16.26023867 eV

  energy without entropy =      -16.26023867  energy(sigma->0) =      -16.26023867


--------------------------------------------------------------------------------------------------------




--------------------------------------- Iteration      1(  12)  ---------------------------------------


    POTLOK:  cpu time    0.0463: real time    0.0465
    SETDIJ:  cpu time    0.0039: real time    0.0039
     EDDAV:  cpu time    2.8586: real time    2.8642
       DOS:  cpu time    0.0031: real time    0.0031
    CHARGE:  cpu time    0.2110: real time    0.2112
    MIXING:  cpu time    0.0019: real time    0.0019
    --------------------------------------------
      LOOP:  cpu time    3.1248: real time    3.1308

 eigenvalue-minimisations  :  3608
 total energy-change (2. order) :-0.8222342E-03  (-0.2918178E-04)
 number of electron      20.0000001 magnetization 
 augmentation part       -4.4797295 magnetization 

 Broyden mixing:
  rms(total) = 0.17391E-02    rms(broyden)= 0.17391E-02
  rms(prec ) = 0.27404E-02
  weight for this iteration     100.00

 eigenvalues of (default mixing * dielectric matrix)
  average eigenvalue GAMMA=   2.0614
  4.6040  3.0625  2.5061  1.1957  1.1957  1.0206  0.8454

 Free energy of the ion-electron system (eV)
  ---------------------------------------------------
  alpha Z        PSCENC =         9.43359822
  Ewald energy   TEWEN  =      1140.79873824
  -Hartree energ DENC   =     -1762.52201609
  -exchange      EXHF   =         0.00000000
  -V(xc)+E(xc)   XCENC  =      -237.62904087
  PAW double counting   =      1136.22687458     -861.32299765
  entropy T*S    EENTRO =        -0.00000000
  eigenvalues    EBANDS =      -143.67411443
  atomic energy  EATOM  =       702.42789710
  Solvation  Ediel_sol  =         0.00000000
  ---------------------------------------------------
  free energy    TOTEN  =       -16.26106090 eV

  energy without entropy =      -16.26106090  energy(sigma->0) =      -16.26106090


--------------------------------------------------------------------------------------------------------




--------------------------------------- Iteration      1(  13)  ---------------------------------------


    POTLOK:  cpu time    0.0542: real time    0.0543
    SETDIJ:  cpu time    0.0040: real time    0.0040
     EDDAV:  cpu time    2.9291: real time    2.9345
       DOS:  cpu time    0.0031: real time    0.0031
    CHARGE:  cpu time    0.2113: real time    0.2115
    MIXING:  cpu time    0.0021: real time    0.0021
    --------------------------------------------
      LOOP:  cpu time    3.2038: real time    3.2096

 eigenvalue-minimisations  :  3746
 total energy-change (2. order) :-0.4249237E-03  (-0.7650282E-05)
 number of electron      20.0000001 magnetization 
 augmentation part       -4.4795358 magnetization 

 Broyden mixing:
  rms(total) = 0.11238E-02    rms(broyden)= 0.11238E-02
  rms(prec ) = 0.15078E-02
  weight for this iteration     100.00

 eigenvalues of (default mixing * dielectric matrix)
  average eigenvalue GAMMA=   2.2343
  5.6490  3.2737  2.4686  2.2022  1.1536  1.1536  1.0615  0.9123

 Free energy of the ion-electron system (eV)
  ---------------------------------------------------
  alpha Z        PSCENC =         9.43359822
  Ewald energy   TEWEN  =      1140.79873824
  -Hartree energ DENC   =     -1762.92547608
  -exchange      EXHF   =         0.00000000
  -V(xc)+E(xc)   XCENC  =      -237.62751606
  PAW double counting   =      1135.30193449     -860.39705675
  entropy T*S    EENTRO =        -0.00000000
  eigenvalues    EBANDS =      -143.27360498
  atomic energy  EATOM  =       702.42789710
  Solvation  Ediel_sol  =         0.00000000
  ---------------------------------------------------
  free energy    TOTEN  =       -16.26148583 eV

  energy without entropy =      -16.26148583  energy(sigma->0) =      -16.26148583


--------------------------------------------------------------------------------------------------------




--------------------------------------- Iteration      1(  14)  ---------------------------------------


    POTLOK:  cpu time    0.0507: real time    0.0508
    SETDIJ:  cpu time    0.0039: real time    0.0039
     EDDAV:  cpu time    3.0450: real time    3.0505
       DOS:  cpu time    0.0031: real time    0.0031
    CHARGE:  cpu time    0.2228: real time    0.2231
    MIXING:  cpu time    0.0022: real time    0.0022
    --------------------------------------------
      LOOP:  cpu time    3.3278: real time    3.3337

 eigenvalue-minimisations  :  3890
 total energy-change (2. order) :-0.2678590E-03  (-0.4232770E-05)
 number of electron      20.0000001 magnetization 
 augmentation part       -4.4795083 magnetization 

 Broyden mixing:
  rms(total) = 0.38774E-03    rms(broyden)= 0.38774E-03
  rms(prec ) = 0.61248E-03
  weight for this iteration     100.00

 eigenvalues of (default mixing * dielectric matrix)
  average eigenvalue GAMMA=   2.2458
  6.7461  3.0762  2.5371  2.5371  1.1788  1.1788  0.9516  1.0032  1.0032

 Free energy of the ion-electron system (eV)
  ---------------------------------------------------
  alpha Z        PSCENC =         9.43359822
  Ewald energy   TEWEN  =      1140.79873824
  -Hartree energ DENC   =     -1763.13337216
  -exchange      EXHF   =         0.00000000
  -V(xc)+E(xc)   XCENC  =      -237.62747993
  PAW double counting   =      1135.47624714     -860.57078203
  entropy T*S    EENTRO =        -0.00000000
  eigenvalues    EBANDS =      -143.06660026
  atomic energy  EATOM  =       702.42789710
  Solvation  Ediel_sol  =         0.00000000
  ---------------------------------------------------
  free energy    TOTEN  =       -16.26175369 eV

  energy without entropy =      -16.26175369  energy(sigma->0) =      -16.26175369


--------------------------------------------------------------------------------------------------------




--------------------------------------- Iteration      1(  15)  ---------------------------------------


    POTLOK:  cpu time    0.0479: real time    0.0480
    SETDIJ:  cpu time    0.0040: real time    0.0040
     EDDAV:  cpu time    2.9900: real time    2.9957
       DOS:  cpu time    0.0033: real time    0.0033
    CHARGE:  cpu time    0.2147: real time    0.2150
    MIXING:  cpu time    0.0021: real time    0.0021
    --------------------------------------------
      LOOP:  cpu time    3.2620: real time    3.2681

 eigenvalue-minimisations  :  3866
 total energy-change (2. order) :-0.5959269E-04  (-0.2109333E-06)
 number of electron      20.0000001 magnetization 
 augmentation part       -4.4795264 magnetization 

 Broyden mixing:
  rms(total) = 0.33183E-03    rms(broyden)= 0.33183E-03
  rms(prec ) = 0.50210E-03
  weight for this iteration     100.00

 eigenvalues of (default mixing * dielectric matrix)
  average eigenvalue GAMMA=   2.3561
  6.5532  4.2763  2.7040  2.7040  1.9720  1.1361  1.1361  1.2065  0.9366  0.9366

 Free energy of the ion-electron system (eV)
  ---------------------------------------------------
  alpha Z        PSCENC =         9.43359822
  Ewald energy   TEWEN  =      1140.79873824
  -Hartree energ DENC   =     -1763.14986732
  -exchange      EXHF   =         0.00000000
  -V(xc)+E(xc)   XCENC  =      -237.62786702
  PAW double counting   =      1135.28921308     -860.38361270
  entropy T*S    EENTRO =        -0.00000000
  eigenvalues    EBANDS =      -143.04991287
  atomic energy  EATOM  =       702.42789710
  Solvation  Ediel_sol  =         0.00000000
  ---------------------------------------------------
  free energy    TOTEN  =       -16.26181328 eV

  energy without entropy =      -16.26181328  energy(sigma->0) =      -16.26181328


--------------------------------------------------------------------------------------------------------




--------------------------------------- Iteration      1(  16)  ---------------------------------------


    POTLOK:  cpu time    0.0466: real time    0.0467
    SETDIJ:  cpu time    0.0039: real time    0.0039
     EDDAV:  cpu time    2.8191: real time    2.8247
       DOS:  cpu time    0.0032: real time    0.0031
    CHARGE:  cpu time    0.2156: real time    0.2158
    MIXING:  cpu time    0.0023: real time    0.0023
    --------------------------------------------
      LOOP:  cpu time    3.0906: real time    3.0966

 eigenvalue-minimisations  :  3528
 total energy-change (2. order) :-0.4405996E-04  (-0.8188444E-06)
 number of electron      20.0000001 magnetization 
[...]
  band No.  band energies     occupation 
      1     -14.5733      2.00000
      2     -14.3331      2.00000
      3      -8.8699      2.00000
      4      -8.6355      2.00000
      5      -6.0636      2.00000
      6      -5.1238      2.00000
      7      -4.8748      2.00000
      8      -4.1119      2.00000
      9      -3.8280      2.00000
     10      -3.1008      2.00000
     11       0.0827      0.00000
     12       1.0344      0.00000
     13       1.1036      0.00000
     14       1.5273      0.00000

 k-point    96 :      -0.2000    0.4000    0.0000
  band No.  band energies     occupation 
      1     -14.6409      2.00000
      2     -14.3520      2.00000
      3      -9.0213      2.00000
      4      -8.7314      2.00000
      5      -5.6515      2.00000
      6      -4.8470      2.00000
      7      -4.5959      2.00000
      8      -3.9840      2.00000
      9      -3.4918      2.00000
     10      -2.7316      2.00000
     11      -0.3858      0.00000
     12       0.4845      0.00000
     13       0.6889      0.00000
     14       1.1840      0.00000

 k-point    97 :      -0.1333    0.4000    0.0000
  band No.  band energies     occupation 
      1     -14.6955      2.00000
      2     -14.3712      2.00000
      3      -9.1388      2.00000
      4      -8.8093      2.00000
      5      -5.1592      2.00000
      6      -4.7895      2.00000
      7      -4.1816      2.00000
      8      -3.9408      2.00000
      9      -2.9673      2.00000
     10      -2.5218      2.00000
     11      -0.6473      0.00000
     12      -0.2270      0.00000
     13       0.4795      0.00000
     14       0.7327      0.00000

 k-point    98 :      -0.0667    0.4000    0.0000
  band No.  band energies     occupation 
      1     -14.7312      2.00000
      2     -14.3848      2.00000
      3      -9.2114      2.00000
      4      -8.8588      2.00000
      5      -4.7918      2.00000
      6      -4.6477      2.00000
      7      -3.9685      2.00000
      8      -3.7899      2.00000
      9      -2.6944      2.00000
     10      -2.4344      2.00000
     11      -0.8008      0.00000
     12      -0.3980      0.00000
     13       0.1881      0.00000
     14       0.3653      0.00000

 k-point    99 :       0.0000    0.4667    0.0000
  band No.  band energies     occupation 
      1     -14.6019      2.00000
      2     -14.4795      2.00000
      3      -9.2165      2.00000
      4      -9.0929      2.00000
      5      -4.5591      2.00000
      6      -4.3526      2.00000
      7      -3.9122      2.00000
      8      -3.7257      2.00000
      9      -2.6322      2.00000
     10      -2.3120      2.00000
     11      -0.9334      0.00000
     12      -0.5126      0.00000
     13      -0.0819      0.00000
     14       0.1143      0.00000

 k-point   100 :       0.0667    0.4667    0.0000
  band No.  band energies     occupation 
      1     -14.5939      2.00000
      2     -14.4707      2.00000
      3      -9.1886      2.00000
      4      -9.0684      2.00000
      5      -4.5808      2.00000
      6      -4.4597      2.00000
      7      -4.0448      2.00000
      8      -3.9289      2.00000
      9      -2.5799      2.00000
     10      -2.4433      2.00000
     11      -0.8374      0.00000
     12      -0.7279      0.00000
     13       0.2551      0.00000
     14       0.5714      0.00000

 k-point   101 :       0.1333    0.4667    0.0000
  band No.  band energies     occupation 
      1     -14.5677      2.00000
      2     -14.4484      2.00000
      3      -9.1084      2.00000
      4      -8.9979      2.00000
      5      -4.8636      2.00000
      6      -4.7082      2.00000
      7      -4.2661      2.00000
      8      -4.1550      2.00000
      9      -2.8866      2.00000
     10      -2.7190      2.00000
     11      -0.6002      0.00000
     12      -0.3624      0.00000
     13       0.7742      0.00000
     14       0.8509      0.00000

 k-point   102 :       0.2000    0.4667    0.0000
  band No.  band energies     occupation 
      1     -14.5270      2.00000
      2     -14.4162      2.00000
      3      -8.9795      2.00000
      4      -8.8866      2.00000
      5      -5.3669      2.00000
      6      -5.0717      2.00000
      7      -4.4458      2.00000
      8      -4.2405      2.00000
      9      -3.3847      2.00000
     10      -3.0942      2.00000
     11      -0.0969      0.00000
     12       0.2818      0.00000
     13       0.9811      0.00000
     14       1.2131      0.00000

 k-point   103 :       0.2667    0.4667    0.0000
  band No.  band energies     occupation 
      1     -14.4772      2.00000
      2     -14.3801      2.00000
      3      -8.8102      2.00000
      4      -8.7439      2.00000
      5      -5.8344      2.00000
      6      -5.5021      2.00000
      7      -4.6409      2.00000
      8      -4.4194      2.00000
      9      -3.7205      2.00000
     10      -3.4196      2.00000
     11       0.4241      0.00000
     12       0.8041      0.00000
     13       1.3458      0.00000
     14       1.6071      0.00000

 k-point   104 :       0.3333    0.4667    0.0000
  band No.  band energies     occupation 
      1     -14.4257      2.00000
      2     -14.3471      2.00000
      3      -8.6170      2.00000
      4      -8.5867      2.00000
      5      -6.2182      2.00000
      6      -5.8894      2.00000
      7      -4.9344      2.00000
      8      -4.7122      2.00000
      9      -3.8325      2.00000
     10      -3.5857      2.00000
     11       0.7877      0.00000
     12       1.0671      0.00000
     13       1.8644      0.00000
     14       2.1679      0.00000

 k-point   105 :       0.4000    0.4667    0.0000
  band No.  band energies     occupation 
      1     -14.3804      2.00000
      2     -14.3248      2.00000
      3      -8.4427      2.00000
      4      -8.4331      2.00000
      5      -6.4838      2.00000
      6      -6.2072      2.00000
      7      -5.1866      2.00000
      8      -5.0145      2.00000
      9      -3.8311      2.00000
     10      -3.6559      2.00000
     11       1.0306      0.00000
     12       1.1874      0.00000
     13       2.3453      0.00000
     14       2.6199      0.00000

 k-point   106 :       0.4667    0.4667    0.0000
  band No.  band energies     occupation 
      1     -14.3483      2.00000
      2     -14.3191      2.00000
      3      -8.3531      2.00000
      4      -8.3146      2.00000
      5      -6.5893      2.00000
      6      -6.4304      2.00000
      7      -5.2898      2.00000
      8      -5.2267      2.00000
      9      -3.7963      2.00000
     10      -3.6980      2.00000
     11       1.1858      0.00000
     12       1.2165      0.00000
     13       2.6218      0.00000
     14       2.7961      0.00000

 k-point   107 :      -0.4667    0.4667    0.0000
  band No.  band energies     occupation 
      1     -14.3342      2.00000
      2     -14.3330      2.00000
      3      -8.3606      2.00000
      4      -8.3130      2.00000
      5      -6.5146      2.00000
      6      -6.5048      2.00000
      7      -5.2938      2.00000
      8      -5.2153      2.00000
      9      -3.7561      2.00000
     10      -3.7375      2.00000
     11       1.1591      0.00000
     12       1.2443      0.00000
     13       2.6651      0.00000
     14       2.7240      0.00000

 k-point   108 :      -0.4000    0.4667    0.0000
  band No.  band energies     occupation 
      1     -14.3656      2.00000
      2     -14.3391      2.00000
      3      -8.4713      2.00000
      4      -8.4177      2.00000
      5      -6.4303      2.00000
      6      -6.2590      2.00000
      7      -5.1968      2.00000
      8      -4.9880      2.00000
      9      -3.7726      2.00000
     10      -3.7115      2.00000
     11       1.0176      0.00000
     12       1.2026      0.00000
     13       2.3892      0.00000
     14       2.5545      0.00000

 k-point   109 :      -0.3333    0.4667    0.0000
  band No.  band energies     occupation 
      1     -14.4122      2.00000
      2     -14.3599      2.00000
      3      -8.6433      2.00000
      4      -8.5753      2.00000
      5      -6.1921      2.00000
      6      -5.9097      2.00000
      7      -4.9613      2.00000
      8      -4.6720      2.00000
      9      -3.7759      2.00000
     10      -3.6337      2.00000
     11       0.7925      0.00000
     12       1.0646      0.00000
     13       1.9037      0.00000
     14       2.1181      0.00000

 k-point   110 :      -0.2667    0.4667    0.0000
  band No.  band energies     occupation 
      1     -14.4657      2.00000
      2     -14.3908      2.00000
      3      -8.8268      2.00000
      4      -8.7409      2.00000
      5      -5.8323      2.00000
      6      -5.4935      2.00000
      7      -4.6793      2.00000
      8      -4.3801      2.00000
      9      -3.6750      2.00000
     10      -3.4441      2.00000
     11       0.4456      0.00000
     12       0.7824      0.00000
     13       1.3696      0.00000
     14       1.5796      0.00000

 k-point   111 :      -0.2000    0.4667    0.0000
  band No.  band energies     occupation 
      1     -14.5179      2.00000
      2     -14.4246      2.00000
      3      -8.9895      2.00000
      4      -8.8875      2.00000
      5      -5.3838      2.00000
      6      -5.0420      2.00000
      7      -4.4762      2.00000
      8      -4.2169      2.00000
      9      -3.3689      2.00000
     10      -3.0794      2.00000
     11      -0.0709      0.00000
     12       0.2510      0.00000
     13       0.9927      0.00000
     14       1.2035      0.00000

 k-point   112 :      -0.1333    0.4667    0.0000
  band No.  band energies     occupation 
      1     -14.5614      2.00000
      2     -14.4541      2.00000
      3      -9.1140      2.00000
      4      -8.9999      2.00000
      5      -4.8941      2.00000
      6      -4.6781      2.00000
      7      -4.2752      2.00000
      8      -4.1409      2.00000
      9      -2.8998      2.00000
     10      -2.6715      2.00000
     11      -0.5852      0.00000
     12      -0.3834      0.00000
     13       0.7824      0.00000
     14       0.8579      0.00000

 k-point   113 :      -0.0667    0.4667    0.0000
  band No.  band energies     occupation 
      1     -14.5907      2.00000
      2     -14.4736      2.00000
      3      -9.1911      2.00000
      4      -9.0697      2.00000
      5      -4.5710      2.00000
      6      -4.4867      2.00000
      7      -4.0398      2.00000
      8      -3.9157      2.00000
      9      -2.5301      2.00000
     10      -2.4716      2.00000
     11      -0.8394      0.00000
     12      -0.7183      0.00000
     13       0.2631      0.00000
     14       0.5473      0.00000


--------------------------------------------------------------------------------------------------------


 soft charge-density along one line, spin component           1
         0         1         2         3         4         5         6         7         8         9
 total charge-density along one line
 
 pseudopotential strength for first ion, spin component:           1
 30.098 -23.444   0.003  -0.090   0.038   0.005  -0.141   0.060
-23.444  28.123  -0.002   0.051  -0.021  -0.003   0.083  -0.035
  0.003  -0.002   6.334   0.000   0.000   9.799   0.000   0.000
 -0.090   0.051   0.000   6.332   0.002   0.000   9.795   0.003
  0.038  -0.021   0.000   0.002   6.334   0.000   0.003   9.798
  0.005  -0.003   9.799   0.000   0.000  15.231   0.000   0.000
 -0.141   0.083   0.000   9.795   0.003   0.000  15.224   0.004
  0.060  -0.035   0.000   0.003   9.798   0.000   0.004  15.229
  0.000  -0.000   0.008   0.000   0.001   0.012   0.000   0.001
  0.000  -0.000  -0.020   0.001   0.000  -0.031   0.001   0.000
 -0.003   0.004  -0.000  -0.023  -0.005  -0.001  -0.035  -0.007
  0.003  -0.002   0.000   0.009  -0.020   0.000   0.014  -0.031
 -0.001   0.000  -0.001  -0.000   0.009  -0.001  -0.000   0.014
 total augmentation occupancy for first ion, spin component:           1
  2.024  -0.015  -0.008   0.239  -0.097   0.002  -0.042   0.018   0.001   0.000   0.022   0.002  -0.000
 -0.015   0.009   0.002  -0.073   0.030  -0.001   0.019  -0.007  -0.000   0.000  -0.002   0.001  -0.001
 -0.008   0.002   1.507   0.003   0.002  -0.405  -0.002  -0.000   0.136  -0.044  -0.008  -0.000   0.002
  0.239  -0.073   0.003   1.842   0.002  -0.002  -0.485  -0.016  -0.001  -0.003  -0.266  -0.021  -0.001
 -0.097   0.030   0.002   0.002   1.488  -0.000  -0.017  -0.393   0.013  -0.000  -0.088  -0.047  -0.007
  0.002  -0.001  -0.405  -0.002  -0.000   0.117   0.001   0.000  -0.036   0.012   0.002   0.000  -0.001
 -0.042   0.019  -0.002  -0.485  -0.017   0.001   0.140   0.008   0.000   0.001   0.074   0.006   0.000
  0.018  -0.007  -0.000  -0.016  -0.393   0.000   0.008   0.112  -0.004   0.000   0.023   0.013   0.002
  0.001  -0.000   0.136  -0.001   0.013  -0.036   0.000  -0.004   0.075   0.000   0.001   0.000   0.000
  0.000   0.000  -0.044  -0.003  -0.000   0.012   0.001   0.000   0.000   0.021   0.001   0.000  -0.000
  0.022  -0.002  -0.008  -0.266  -0.088   0.002   0.074   0.023   0.001   0.001   0.077   0.007   0.002
  0.002   0.001  -0.000  -0.021  -0.047   0.000   0.006   0.013   0.000   0.000   0.007   0.022   0.001
 -0.000  -0.001   0.002  -0.001  -0.007  -0.001   0.000   0.002   0.000  -0.000   0.002   0.001   0.017


------------------------ aborting loop because EDIFF is reached ----------------------------------------


    CHARGE:  cpu time    0.2138: real time    0.2141
    FORLOC:  cpu time    0.0022: real time    0.0022
    FORNL :  cpu time    0.3405: real time    0.3409
    STRESS:  cpu time    0.7782: real time    0.7793
    FORCOR:  cpu time    0.0481: real time    0.0482
    FORHAR:  cpu time    0.0126: real time    0.0126
    MIXING:  cpu time    0.0012: real time    0.0012
    OFIELD:  cpu time    0.0000: real time    0.0000

  FORCE on cell =-STRESS in cart. coord.  units (eV):
  Direction    XX          YY          ZZ          XY          YZ          ZX
  --------------------------------------------------------------------------------------
  Alpha Z     9.43360     9.43360     9.43360
  Ewald    1593.70706  1599.04711 -2050.22953    -1.20890     0.00000     0.00000
  Hartree  1715.58758  1717.68825 -1668.49893    -0.43360    -0.00000     0.00000
  E(xc)     -77.63894   -77.65746   -78.85194    -0.01592     0.00000     0.00000
  Local   -3561.98606 -3568.75065  3463.94742     1.67760    -0.00000     0.00000
  n-local   162.45211   162.67351   167.17329     0.04315     0.00000     0.00000
  augment   -31.87515   -31.81092   -32.80310    -0.00443     0.00000     0.00000
  Kinetic   190.13547   189.23684   189.83180    -0.20510     0.00000    -0.00000
  Fock        0.00000     0.00000     0.00000     0.00000     0.00000     0.00000
  -------------------------------------------------------------------------------------
  Total      -0.18434    -0.13972     0.00260    -0.14720     0.00000     0.00000
  in kB      -0.77917    -0.59057     0.01098    -0.62220     0.00000     0.00000
  external pressure =       -0.45 kB  Pullay stress =        0.00 kB


 VOLUME and BASIS-vectors are now :
 -----------------------------------------------------------------------------
  energy-cutoff  :      600.00
  volume of cell :      379.04
      direct lattice vectors                 reciprocal lattice vectors
     4.415224441  0.016433838  0.000000000     0.226492214 -0.000849346  0.000000000
     0.016096792  4.292477857  0.000000000    -0.000867130  0.232968926  0.000000000
     0.000000000  0.000000000 20.000000000     0.000000000  0.000000000  0.050000000

  length of vectors
     4.415255025  4.292508039 20.000000000     0.226493806  0.232970540  0.050000000


 FORCES acting on ions
    electron-ion (+dipol)            ewald-force                    non-local-force                 convergence-correction
 -----------------------------------------------------------------------------------------------
   0.480E+01 0.399E+00 -.144E+03   -.645E+01 -.544E+00 0.147E+03   0.166E+01 0.145E+00 -.383E+01   -.733E-04 -.497E-04 0.219E-03
   0.480E+01 0.399E+00 0.144E+03   -.645E+01 -.544E+00 -.147E+03   0.166E+01 0.145E+00 0.383E+01   -.733E-04 -.497E-04 -.219E-03
   -.595E+01 -.508E+00 -.204E+03   0.645E+01 0.544E+00 0.206E+03   -.502E+00 -.370E-01 -.204E+01   0.163E-02 0.458E-03 0.112E-02
   -.595E+01 -.508E+00 0.204E+03   0.645E+01 0.544E+00 -.206E+03   -.502E+00 -.370E-01 0.204E+01   0.163E-02 0.458E-03 -.112E-02
 -----------------------------------------------------------------------------------------------
   -.231E+01 -.217E+00 -.348E-06   0.178E-14 0.000E+00 0.000E+00   0.231E+01 0.216E+00 0.000E+00   0.310E-02 0.817E-03 0.660E-11
 
 
 POSITION                                       TOTAL-FORCE (eV/Angst)
 -----------------------------------------------------------------------------------
      2.59221      3.24261     11.37639         0.000434     -0.000202      0.000181
      0.37655      1.08815      8.62361         0.000434     -0.000202     -0.000181
      0.13530      1.05996     11.33705        -0.000434      0.000202      0.000736
      2.35096      3.21442      8.66295        -0.000434      0.000202     -0.000736
 -----------------------------------------------------------------------------------
    total drift:                                0.000389      0.000082     -0.000000


--------------------------------------------------------------------------------------------------------



  FREE ENERGIE OF THE ION-ELECTRON SYSTEM (eV)
  ---------------------------------------------------
  free  energy   TOTEN  =       -16.26313373 eV

  energy  without entropy=      -16.26313373  energy(sigma->0) =      -16.26313373
 
 d Force = 0.6844830E-06[ 0.116E-06, 0.125E-05]  d Energy = 0.8222464E-06-0.138E-06
 d Force =-0.8712203E-01[-0.871E-01,-0.871E-01]  d Ewald  =-0.8712203E-01 0.350E-09


--------------------------------------------------------------------------------------------------------


    POTLOK:  cpu time    0.0499: real time    0.0501


--------------------------------------------------------------------------------------------------------


 Conjugate gradient step on ions:
 trial-energy change:   -0.000001  1 .order   -0.000001   -0.000001   -0.000000
  (g-gl).g = 0.210E-06      g.g   = 0.319E-06  gl.gl    = 0.182E-05
 g(Force)  = 0.319E-06   g(Stress)= 0.000E+00 ortho     = 0.569E-07
 gamma     =   0.11526
 trial     =   3.84434
 opt step  =   4.23517  (harmonic =   4.23517) maximal distance =0.00023327
 next E    =   -16.263134   (d E  =  -0.00000)


--------------------------------------------------------------------------------------------------------


  
 reached required accuracy - stopping structural energy minimisation
 writing wavefunctions
     LOOP+:  cpu time    9.1888: real time    9.6722
    4ORBIT:  cpu time    0.0000: real time    0.0000

 total amount of memory used by VASP MPI-rank0    63953. kBytes
=======================================================================

   base      :      30000. kBytes
   nonl-proj :      12820. kBytes
   fftplans  :       2678. kBytes
   grid      :       4349. kBytes
   one-center:          8. kBytes
   wavefun   :      14098. kBytes
 
  
  
 General timing and accounting informations for this job:
 ========================================================
  
                  Total CPU time used (sec):      297.495
                            User time (sec):      295.174
                          System time (sec):        2.321
                         Elapsed time (sec):      308.510
  
                   Maximum memory used (kb):      213520.
                   Average memory used (kb):           0.
  
                          Minor page faults:      1655601
                          Major page faults:          123
                 Voluntary context switches:         9072
