 running on  192 total cores
 distrk:  each k-point on  192 cores,    1 groups
 distr:  one band on   24 cores,    8 groups
 using from now: INCAR     
 vasp.5.4.4.18Apr17-6-g9f103f2a35 (build Oct 01 2024 10:11:53) complex          
  
 POSCAR found type information on POSCAR  B  O 
 POSCAR found :  2 types and      10 ions
 scaLAPACK will be used
 LDA part: xc-table for Pade appr. of Perdew
 found WAVECAR, reading the header
  number of k-points has changed, file:    27 present:    24
  trying to continue reading WAVECAR, but it might fail
 WARNING: stress and forces are not correct
 POSCAR, INCAR and KPOINTS ok, starting setup
 FFT: planning ...
 reading WAVECAR
 the WAVECAR file was read successfully
 charge-density read from file: unknown                                 
 entering main loop
       N       E                     dE             d eps       ncg     rms          rms(c)
DAV:   1    -0.769228861001E+02   -0.76923E+02   -0.50675E+02  1656   0.936E+01
DAV:   2    -0.801368300437E+02   -0.32139E+01   -0.32042E+01  1880   0.255E+01
DAV:   3    -0.801904297612E+02   -0.53600E-01   -0.53522E-01  1768   0.340E+00
DAV:   4    -0.801923072687E+02   -0.18775E-02   -0.18771E-02  1880   0.549E-01
DAV:   5    -0.801923483371E+02   -0.41068E-04   -0.41067E-04  1800   0.816E-02
DAV:   6    -0.801923498943E+02   -0.15572E-05   -0.15571E-05  1680   0.137E-02
DAV:   7    -0.801923499696E+02   -0.75323E-07   -0.75326E-07  1272   0.273E-03
   1 F= -.80192350E+02 E0= -.80192350E+02  d E =0.000000E+00
 writing wavefunctions
