
     Program PWSCF v.6.6 starts on  8May2023 at  6:23:51 

     This program is part of the open-source Quantum ESPRESSO suite
     for quantum simulation of materials; please cite
         "P. Giannozzi et al., J. Phys.:Condens. Matter 21 395502 (2009);
         "P. Giannozzi et al., J. Phys.:Condens. Matter 29 465901 (2017);
          URL http://www.quantum-espresso.org", 
     in publications or presentations arising from this work. More details at
     http://www.quantum-espresso.org/quote

     Parallel version (MPI), running on    24 processors

     MPI processes distributed on     1 nodes
     R & G space division:  proc/nbgrp/npool/nimage =      24
     Fft bands division:     nmany     =       1
     Reading input from INCAR-relax.pw
Warning: card &CELL ignored
Warning: card     CELL_DYNAMICS  = "BFGS" ignored
Warning: card     ! CELL_DOFREE = "XY" ignored
Warning: card / ignored

     Current dimensions of program PWSCF are:
     Max number of different atomic species (ntypx) = 10
     Max number of k-points (npk) =  40000
     Max angular momentum in pseudopotentials (lmaxx) =  3

     Subspace diagonalization in iterative solution of the eigenvalue problem:
     a serial algorithm will be used

     Message from routine setup:
     using ibrav=0 with symmetry is DISCOURAGED, use correct ibrav instead
 
     Parallelization info
     --------------------
     sticks:   dense  smooth     PW     G-vecs:    dense   smooth      PW
     Min         135      72     20                26575    10340    1524
     Max         137      73     21                26590    10350    1537
     Sum        3251    1729    485               637973   248295   36641
 


     bravais-lattice index     =            0
     lattice parameter (alat)  =       8.3935  a.u.
     unit-cell volume          =    2570.3292 (a.u.)^3
     number of atoms/cell      =            4
     number of atomic types    =            2
     number of electrons       =        40.00
     number of Kohn-Sham states=           24
     kinetic-energy cutoff     =      80.0000  Ry
     charge density cutoff     =     600.0000  Ry
     convergence threshold     =      1.0E-10
     mixing beta               =       0.7000
     number of iterations used =            8  plain     mixing
     Exchange-correlation= SLA  PW   PBE  PBE
                           (   1   4   3   4   0   0   0)
     nstep                     =          100


     celldm(1)=   8.393460  celldm(2)=   0.000000  celldm(3)=   0.000000
     celldm(4)=   0.000000  celldm(5)=   0.000000  celldm(6)=   0.000000

     crystal axes: (cart. coord. in units of alat)
               a(1) = (   1.000000   0.000000   0.000000 )  
               a(2) = (   0.000000   0.965334   0.000000 )  
               a(3) = (   0.000000   0.000000   4.502853 )  

     reciprocal axes: (cart. coord. in units 2 pi/alat)
               b(1) = (  1.000000  0.000000  0.000000 )  
               b(2) = (  0.000000  1.035910  0.000000 )  
               b(3) = (  0.000000  0.000000  0.222081 )  


     PseudoPot. # 1 for Sn read from file:
     ./Sn_pbe_v1.uspp.F.UPF
     MD5 check sum: 4cf58ce39ec5d5d420df3dd08604eb00
     Pseudo is Ultrasoft + core correction, Zval = 14.0
     Generated by new atomic code, or converted to UPF format
     Using radial grid of  891 points,  6 beta functions with: 
                l(1) =   0
                l(2) =   0
                l(3) =   1
                l(4) =   1
                l(5) =   2
                l(6) =   2
     Q(r) pseudized with  6 coefficients,  rinner =    1.200   1.200   1.200
                                                       1.200   1.200

     PseudoPot. # 2 for Se read from file:
     ./Se_pbe_v1.uspp.F.UPF
     MD5 check sum: 1b3568f3a8ae88f9a2a0ad0698632c85
     Pseudo is Ultrasoft + core correction, Zval =  6.0
     Generated by new atomic code, or converted to UPF format
     Using radial grid of  877 points,  6 beta functions with: 
                l(1) =   0
                l(2) =   0
                l(3) =   1
                l(4) =   1
                l(5) =   2
                l(6) =   2
     Q(r) pseudized with  8 coefficients,  rinner =    1.300   1.300   1.300
                                                       1.300   1.300

     atomic species   valence    mass     pseudopotential
        Sn            14.00   118.71000     Sn( 1.00)
        Se             6.00    78.96000     Se( 1.00)

      2 Sym. Ops. (no inversion) found ( 1 have fractional translation)



   Cartesian axes

     site n.     atom                  positions (alat units)
         1           Sn  tau(   1) = (   0.5839905   0.7240008   0.6509157  )
         2           Sn  tau(   2) = (   0.0839891   0.2413336   0.0296720  )
         3           Se  tau(   3) = (   0.0301155   0.2413336   0.6408427  )
         4           Se  tau(   4) = (   0.5301129   0.7240008   0.0397374  )

     number of k points=    64  Marzari-Vanderbilt smearing, width (Ry)=  0.0100
                       cart. coord. in units 2pi/alat
        k(    1) = (   0.0000000   0.0000000   0.0000000), wk =   0.0088889
        k(    2) = (   0.0000000   0.0690607   0.0000000), wk =   0.0177778
        k(    3) = (   0.0000000   0.1381214   0.0000000), wk =   0.0177778
        k(    4) = (   0.0000000   0.2071821   0.0000000), wk =   0.0177778
        k(    5) = (   0.0000000   0.2762428   0.0000000), wk =   0.0177778
        k(    6) = (   0.0000000   0.3453035   0.0000000), wk =   0.0177778
        k(    7) = (   0.0000000   0.4143642   0.0000000), wk =   0.0177778
        k(    8) = (   0.0000000   0.4834249   0.0000000), wk =   0.0177778
        k(    9) = (   0.0666667   0.0000000   0.0000000), wk =   0.0177778
        k(   10) = (   0.0666667   0.0690607   0.0000000), wk =   0.0355556
        k(   11) = (   0.0666667   0.1381214   0.0000000), wk =   0.0355556
        k(   12) = (   0.0666667   0.2071821   0.0000000), wk =   0.0355556
        k(   13) = (   0.0666667   0.2762428   0.0000000), wk =   0.0355556
        k(   14) = (   0.0666667   0.3453035   0.0000000), wk =   0.0355556
        k(   15) = (   0.0666667   0.4143642   0.0000000), wk =   0.0355556
        k(   16) = (   0.0666667   0.4834249   0.0000000), wk =   0.0355556
        k(   17) = (   0.1333333   0.0000000   0.0000000), wk =   0.0177778
        k(   18) = (   0.1333333   0.0690607   0.0000000), wk =   0.0355556
        k(   19) = (   0.1333333   0.1381214   0.0000000), wk =   0.0355556
        k(   20) = (   0.1333333   0.2071821   0.0000000), wk =   0.0355556
        k(   21) = (   0.1333333   0.2762428   0.0000000), wk =   0.0355556
        k(   22) = (   0.1333333   0.3453035   0.0000000), wk =   0.0355556
        k(   23) = (   0.1333333   0.4143642   0.0000000), wk =   0.0355556
        k(   24) = (   0.1333333   0.4834249   0.0000000), wk =   0.0355556
        k(   25) = (   0.2000000   0.0000000   0.0000000), wk =   0.0177778
        k(   26) = (   0.2000000   0.0690607   0.0000000), wk =   0.0355556
        k(   27) = (   0.2000000   0.1381214   0.0000000), wk =   0.0355556
        k(   28) = (   0.2000000   0.2071821   0.0000000), wk =   0.0355556
        k(   29) = (   0.2000000   0.2762428   0.0000000), wk =   0.0355556
        k(   30) = (   0.2000000   0.3453035   0.0000000), wk =   0.0355556
        k(   31) = (   0.2000000   0.4143642   0.0000000), wk =   0.0355556
        k(   32) = (   0.2000000   0.4834249   0.0000000), wk =   0.0355556
        k(   33) = (   0.2666667   0.0000000   0.0000000), wk =   0.0177778
        k(   34) = (   0.2666667   0.0690607   0.0000000), wk =   0.0355556
        k(   35) = (   0.2666667   0.1381214   0.0000000), wk =   0.0355556
        k(   36) = (   0.2666667   0.2071821   0.0000000), wk =   0.0355556
        k(   37) = (   0.2666667   0.2762428   0.0000000), wk =   0.0355556
        k(   38) = (   0.2666667   0.3453035   0.0000000), wk =   0.0355556
        k(   39) = (   0.2666667   0.4143642   0.0000000), wk =   0.0355556
        k(   40) = (   0.2666667   0.4834249   0.0000000), wk =   0.0355556
        k(   41) = (   0.3333333   0.0000000   0.0000000), wk =   0.0177778
        k(   42) = (   0.3333333   0.0690607   0.0000000), wk =   0.0355556
        k(   43) = (   0.3333333   0.1381214   0.0000000), wk =   0.0355556
        k(   44) = (   0.3333333   0.2071821   0.0000000), wk =   0.0355556
        k(   45) = (   0.3333333   0.2762428   0.0000000), wk =   0.0355556
        k(   46) = (   0.3333333   0.3453035   0.0000000), wk =   0.0355556
        k(   47) = (   0.3333333   0.4143642   0.0000000), wk =   0.0355556
        k(   48) = (   0.3333333   0.4834249   0.0000000), wk =   0.0355556
        k(   49) = (   0.4000000   0.0000000   0.0000000), wk =   0.0177778
        k(   50) = (   0.4000000   0.0690607   0.0000000), wk =   0.0355556
        k(   51) = (   0.4000000   0.1381214   0.0000000), wk =   0.0355556
        k(   52) = (   0.4000000   0.2071821   0.0000000), wk =   0.0355556
        k(   53) = (   0.4000000   0.2762428   0.0000000), wk =   0.0355556
        k(   54) = (   0.4000000   0.3453035   0.0000000), wk =   0.0355556
        k(   55) = (   0.4000000   0.4143642   0.0000000), wk =   0.0355556
        k(   56) = (   0.4000000   0.4834249   0.0000000), wk =   0.0355556
        k(   57) = (   0.4666667   0.0000000   0.0000000), wk =   0.0177778
        k(   58) = (   0.4666667   0.0690607   0.0000000), wk =   0.0355556
        k(   59) = (   0.4666667   0.1381214   0.0000000), wk =   0.0355556
        k(   60) = (   0.4666667   0.2071821   0.0000000), wk =   0.0355556
        k(   61) = (   0.4666667   0.2762428   0.0000000), wk =   0.0355556
        k(   62) = (   0.4666667   0.3453035   0.0000000), wk =   0.0355556
        k(   63) = (   0.4666667   0.4143642   0.0000000), wk =   0.0355556
        k(   64) = (   0.4666667   0.4834249   0.0000000), wk =   0.0355556

     Dense  grid:   637973 G-vectors     FFT dimensions: (  72,  64, 300)

     Smooth grid:   248295 G-vectors     FFT dimensions: (  48,  48, 216)

     Estimated max dynamical RAM per process >     129.27 MB

     Estimated total dynamical RAM >       3.03 GB

     Initial potential from superposition of free atoms

     starting charge   37.99977, renormalised to   40.00000

     negative rho (up, down):  2.832E-03 0.000E+00
     Starting wfcs are   26 randomized atomic wfcs

     total cpu time spent up to now is        2.6 secs

     Self-consistent Calculation

     iteration #  1     ecut=    80.00 Ry     beta= 0.70
     Davidson diagonalization with overlap
     ethr =  1.00E-02,  avg # of iterations =  3.8

     negative rho (up, down):  5.662E-04 0.000E+00

     total cpu time spent up to now is        7.6 secs

     total energy              =    -413.23882728 Ry
     estimated scf accuracy    <       1.35258873 Ry

     iteration #  2     ecut=    80.00 Ry     beta= 0.70
     Davidson diagonalization with overlap
     ethr =  3.38E-03,  avg # of iterations =  2.2

     negative rho (up, down):  1.130E-04 0.000E+00

     total cpu time spent up to now is       12.4 secs

     total energy              =    -413.63268075 Ry
     estimated scf accuracy    <       0.68598393 Ry

     iteration #  3     ecut=    80.00 Ry     beta= 0.70
     Davidson diagonalization with overlap
     ethr =  1.71E-03,  avg # of iterations =  2.0

     negative rho (up, down):  2.595E-05 0.000E+00

     total cpu time spent up to now is       16.5 secs

     total energy              =    -413.79949603 Ry
     estimated scf accuracy    <       0.02454427 Ry

     iteration #  4     ecut=    80.00 Ry     beta= 0.70
     Davidson diagonalization with overlap
     ethr =  6.14E-05,  avg # of iterations =  2.9

     negative rho (up, down):  2.888E-05 0.000E+00

     total cpu time spent up to now is       20.8 secs

     total energy              =    -413.80350905 Ry
     estimated scf accuracy    <       0.00093450 Ry

     iteration #  5     ecut=    80.00 Ry     beta= 0.70
     Davidson diagonalization with overlap
     ethr =  2.34E-06,  avg # of iterations =  7.0

     negative rho (up, down):  2.874E-05 0.000E+00

     total cpu time spent up to now is       26.2 secs

     total energy              =    -413.80367112 Ry
     estimated scf accuracy    <       0.00076517 Ry

     iteration #  6     ecut=    80.00 Ry     beta= 0.70
     Davidson diagonalization with overlap
     ethr =  1.91E-06,  avg # of iterations =  4.6

     negative rho (up, down):  2.874E-05 0.000E+00

     total cpu time spent up to now is       30.9 secs

     total energy              =    -413.80375684 Ry
     estimated scf accuracy    <       0.00037413 Ry

     iteration #  7     ecut=    80.00 Ry     beta= 0.70
     Davidson diagonalization with overlap
     ethr =  9.35E-07,  avg # of iterations =  2.1

     negative rho (up, down):  2.845E-05 0.000E+00

     total cpu time spent up to now is       34.9 secs

     total energy              =    -413.80379048 Ry
     estimated scf accuracy    <       0.00003810 Ry

     iteration #  8     ecut=    80.00 Ry     beta= 0.70
     Davidson diagonalization with overlap
     ethr =  9.53E-08,  avg # of iterations =  3.4

     negative rho (up, down):  2.869E-05 0.000E+00

     total cpu time spent up to now is       39.3 secs

     total energy              =    -413.80380088 Ry
     estimated scf accuracy    <       0.00000025 Ry

     iteration #  9     ecut=    80.00 Ry     beta= 0.70
     Davidson diagonalization with overlap
     ethr =  6.29E-10,  avg # of iterations =  7.8

     negative rho (up, down):  2.886E-05 0.000E+00

     total cpu time spent up to now is       47.5 secs

     total energy              =    -413.80380226 Ry
     estimated scf accuracy    <       0.00000030 Ry

     iteration # 10     ecut=    80.00 Ry     beta= 0.70
     Davidson diagonalization with overlap
     ethr =  6.29E-10,  avg # of iterations =  2.0

     negative rho (up, down):  2.889E-05 0.000E+00

     total cpu time spent up to now is       51.5 secs

     total energy              =    -413.80380230 Ry
     estimated scf accuracy    <       0.00000001 Ry

     iteration # 11     ecut=    80.00 Ry     beta= 0.70
     Davidson diagonalization with overlap
     ethr =  2.92E-11,  avg # of iterations =  3.7

     negative rho (up, down):  2.889E-05 0.000E+00

     total cpu time spent up to now is       56.2 secs

     total energy              =    -413.80380230 Ry
     estimated scf accuracy    <          1.3E-09 Ry

     iteration # 12     ecut=    80.00 Ry     beta= 0.70
     Davidson diagonalization with overlap
     ethr =  3.19E-12,  avg # of iterations =  3.4

     negative rho (up, down):  2.888E-05 0.000E+00

     total cpu time spent up to now is       60.9 secs

     End of self-consistent calculation

          k = 0.0000 0.0000 0.0000 ( 31059 PWs)   bands (ev):

   -22.2511 -22.2441 -22.2433 -22.2367 -22.2338 -22.2099 -22.2077 -22.2044
   -22.1961 -22.1917 -14.2113 -13.2069  -7.2363  -6.2339  -4.3588  -4.0234
    -3.8889  -2.7757  -2.7132  -1.5486   0.5908   2.3604   2.8100   2.9426

          k = 0.0000 0.0691 0.0000 ( 31101 PWs)   bands (ev):

   -22.2506 -22.2438 -22.2435 -22.2374 -22.2331 -22.2101 -22.2077 -22.2042
   -22.1963 -22.1917 -14.1918 -13.2031  -7.2954  -6.3071  -4.3564  -4.0033
    -3.8365  -2.7847  -2.6006  -1.5625   0.6047   2.4378   2.7346   2.8149

          k = 0.0000 0.1381 0.0000 ( 31049 PWs)   bands (ev):

   -22.2491 -22.2444 -22.2427 -22.2389 -22.2316 -22.2104 -22.2077 -22.2034
   -22.1971 -22.1918 -14.1345 -13.1939  -7.4537  -6.5121  -4.3287  -3.9307
    -3.7006  -2.7442  -2.3627  -1.6089   0.6516   2.2233   2.5133   2.5886

          k = 0.0000 0.2072 0.0000 ( 31043 PWs)   bands (ev):

   -22.2472 -22.2456 -22.2412 -22.2406 -22.2296 -22.2110 -22.2076 -22.2023
   -22.1983 -22.1920 -14.0427 -13.1857  -7.6646  -6.8085  -4.2480  -3.7986
    -3.5115  -2.6654  -2.0535  -1.6936   0.7434   1.5785   2.0514   2.5409

          k = 0.0000 0.2762 0.0000 ( 31031 PWs)   bands (ev):

   -22.2469 -22.2458 -22.2416 -22.2396 -22.2273 -22.2119 -22.2074 -22.2009
   -22.1997 -22.1923 -13.9222 -13.1886  -7.8750  -7.1452  -4.1079  -3.6142
    -3.2979  -2.5770  -1.8050  -1.7079   0.8917   0.9358   1.5732   2.1648

          k = 0.0000 0.3453 0.0000 ( 30967 PWs)   bands (ev):

   -22.2480 -22.2463 -22.2407 -22.2383 -22.2246 -22.2132 -22.2069 -22.2012
   -22.1993 -22.1929 -13.7816 -13.2140  -8.0381  -7.4758  -3.9172  -3.3951
    -3.1092  -2.5173  -1.8876  -1.3653   0.3648   1.0946   1.1861   1.6461

          k = 0.0000 0.4144 0.0000 ( 30937 PWs)   bands (ev):

   -22.2488 -22.2476 -22.2392 -22.2375 -22.2219 -22.2149 -22.2062 -22.2026
   -22.1977 -22.1936 -13.6325 -13.2715  -8.1197  -7.7631  -3.6913  -3.2048
    -2.9986  -2.5298  -1.8322  -1.1464   0.0063   0.9684   1.0309   1.4144

          k = 0.0000 0.4834 0.0000 ( 30948 PWs)   bands (ev):

   -22.2490 -22.2486 -22.2380 -22.2374 -22.2193 -22.2169 -22.2052 -22.2040
   -22.1961 -22.1947 -13.4887 -13.3646  -8.1008  -7.9784  -3.4539  -3.2504
    -2.8279  -2.6402  -1.5924  -1.2784   0.1069   0.5233   0.9622   1.1596

          k = 0.0667 0.0000 0.0000 ( 31082 PWs)   bands (ev):

   -22.2509 -22.2440 -22.2434 -22.2370 -22.2332 -22.2100 -22.2075 -22.2043
   -22.1961 -22.1919 -14.1939 -13.2062  -7.3017  -6.3151  -4.3545  -3.9517
    -3.8596  -2.6941  -2.6691  -1.5690   0.6042   2.4032   2.6447   2.9308

          k = 0.0667 0.0691 0.0000 ( 31054 PWs)   bands (ev):

   -22.2504 -22.2438 -22.2435 -22.2377 -22.2326 -22.2101 -22.2076 -22.2041
   -22.1964 -22.1919 -14.1746 -13.2023  -7.3511  -6.3796  -4.3466  -4.0677
    -3.6813  -2.8347  -2.4425  -1.5801   0.6197   2.3716   2.4700   2.9077

          k = 0.0667 0.1381 0.0000 ( 31067 PWs)   bands (ev):

   -22.2490 -22.2446 -22.2425 -22.2392 -22.2311 -22.2104 -22.2076 -22.2033
   -22.1972 -22.1919 -14.1177 -13.1928  -7.4866  -6.5631  -4.3110  -4.1334
    -3.4338  -2.8868  -2.1552  -1.6169   0.6702   1.8156   2.5502   2.7870

          k = 0.0667 0.2072 0.0000 ( 31040 PWs)   bands (ev):

   -22.2471 -22.2458 -22.2410 -22.2409 -22.2291 -22.2110 -22.2076 -22.2021
   -22.1984 -22.1921 -14.0265 -13.1841  -7.6737  -6.8354  -4.2282  -4.1024
    -3.1825  -2.8534  -1.8628  -1.6813   0.7645   1.2260   2.2639   2.4025

          k = 0.0667 0.2762 0.0000 ( 31019 PWs)   bands (ev):

   -22.2471 -22.2460 -22.2417 -22.2395 -22.2268 -22.2120 -22.2074 -22.2007
   -22.1998 -22.1924 -13.9069 -13.1861  -7.8661  -7.1520  -4.0910  -3.9798
    -2.9656  -2.7705  -1.7529  -1.6131   0.7221   0.9069   1.7250   1.9249

          k = 0.0667 0.3453 0.0000 ( 31000 PWs)   bands (ev):

   -22.2484 -22.2468 -22.2405 -22.2381 -22.2242 -22.2132 -22.2070 -22.2013
   -22.1991 -22.1929 -13.7677 -13.2101  -8.0181  -7.4682  -3.9054  -3.7836
    -2.8489  -2.6948  -1.7671  -1.4577   0.3914   0.9963   1.2949   1.4909

          k = 0.0667 0.4144 0.0000 ( 30963 PWs)   bands (ev):

   -22.2492 -22.2481 -22.2389 -22.2373 -22.2216 -22.2149 -22.2062 -22.2027
   -22.1975 -22.1936 -13.6202 -13.2658  -8.0944  -7.7458  -3.6875  -3.5476
    -2.8816  -2.7044  -1.6663  -1.4063   0.2436   0.6333   1.2417   1.4594

          k = 0.0667 0.4834 0.0000 ( 30945 PWs)   bands (ev):

   -22.2495 -22.2491 -22.2377 -22.2371 -22.2191 -22.2168 -22.2052 -22.2041
   -22.1960 -22.1946 -13.4785 -13.3567  -8.0748  -7.9551  -3.4715  -3.3772
    -2.9507  -2.8347  -1.5132  -1.4190   0.2030   0.3195   1.2978   1.6000

          k = 0.1333 0.0000 0.0000 ( 31060 PWs)   bands (ev):

   -22.2503 -22.2438 -22.2437 -22.2379 -22.2317 -22.2102 -22.2070 -22.2041
   -22.1964 -22.1925 -14.1428 -13.2059  -7.4714  -6.5357  -4.3218  -3.7726
    -3.7597  -2.6402  -2.3910  -1.6319   0.6503   2.1731   2.4790   2.6433

          k = 0.1333 0.0691 0.0000 ( 31063 PWs)   bands (ev):

   -22.2498 -22.2442 -22.2432 -22.2386 -22.2310 -22.2103 -22.2071 -22.2038
   -22.1967 -22.1924 -14.1238 -13.2017  -7.4989  -6.5796  -4.3056  -4.0858
    -3.4103  -2.8436  -2.1436  -1.6330   0.6695   1.8209   2.4836   2.8381

          k = 0.1333 0.1381 0.0000 ( 31091 PWs)   bands (ev):

   -22.2485 -22.2451 -22.2421 -22.2401 -22.2296 -22.2106 -22.2074 -22.2029
   -22.1976 -22.1923 -14.0680 -13.1913  -7.5795  -6.7099  -4.3199  -4.2563
    -3.0707  -3.0419  -1.8323  -1.6346   0.7277   1.2902   2.2633   2.9539

          k = 0.1333 0.2072 0.0000 ( 31068 PWs)   bands (ev):

   -22.2469 -22.2465 -22.2416 -22.2406 -22.2277 -22.2112 -22.2076 -22.2016
   -22.1988 -22.1923 -13.9787 -13.1809  -7.7028  -6.9171  -4.4343  -4.1704
    -3.1271  -2.8033  -1.6352  -1.6248   0.8209   0.8636   1.7362   2.7985

          k = 0.1333 0.2762 0.0000 ( 31042 PWs)   bands (ev):

   -22.2480 -22.2467 -22.2416 -22.2389 -22.2255 -22.2121 -22.2075 -22.2002
   -22.2002 -22.1925 -13.8621 -13.1800  -7.8425  -7.1757  -4.4189  -4.0431
    -3.1117  -2.6696  -1.6490  -1.5772   0.6836   0.8708   1.2817   2.4340

          k = 0.1333 0.3453 0.0000 ( 31050 PWs)   bands (ev):

   -22.2494 -22.2480 -22.2399 -22.2375 -22.2232 -22.2133 -22.2071 -22.2016
   -22.1987 -22.1929 -13.7269 -13.1999  -7.9605  -7.4481  -4.2856  -3.8757
    -3.0596  -2.6988  -1.8245  -1.5028   0.5990   0.7410   1.3209   2.0320

          k = 0.1333 0.4144 0.0000 ( 31005 PWs)   bands (ev):

   -22.2503 -22.2494 -22.2382 -22.2366 -22.2209 -22.2149 -22.2064 -22.2029
   -22.1971 -22.1935 -13.5848 -13.2499  -8.0203  -7.6958  -4.0605  -3.6885
    -3.0871  -2.8484  -1.9376  -1.5023   0.3949   0.8153   1.5702   1.7898

          k = 0.1333 0.4834 0.0000 ( 30957 PWs)   bands (ev):

   -22.2507 -22.2504 -22.2370 -22.2364 -22.2187 -22.2167 -22.2054 -22.2042
   -22.1956 -22.1944 -13.4493 -13.3343  -7.9979  -7.8866  -3.7870  -3.5935
    -3.1740  -3.0475  -1.8441  -1.6453   0.4485   0.6649   1.8658   1.8994

          k = 0.2000 0.0000 0.0000 ( 31064 PWs)   bands (ev):

   -22.2494 -22.2444 -22.2433 -22.2392 -22.2292 -22.2105 -22.2062 -22.2037
   -22.1969 -22.1934 -14.0608 -13.2112  -7.6877  -6.8418  -4.2365  -3.6315
    -3.4984  -2.5624  -2.0155  -1.7351   0.7425   1.5863   2.1615   2.4275

          k = 0.2000 0.0691 0.0000 ( 31090 PWs)   bands (ev):

   -22.2489 -22.2448 -22.2428 -22.2398 -22.2287 -22.2106 -22.2065 -22.2033
   -22.1972 -22.1932 -14.0424 -13.2065  -7.6931  -6.8633  -4.2169  -4.0141
    -3.1184  -2.7902  -1.8039  -1.7129   0.7649   1.2584   2.2313   2.4680

          k = 0.2000 0.1381 0.0000 ( 31076 PWs)   bands (ev):

   -22.2478 -22.2459 -22.2416 -22.2412 -22.2273 -22.2109 -22.2070 -22.2022
   -22.1982 -22.1929 -13.9884 -13.1944  -7.7127  -6.9315  -4.3911  -4.1612
    -3.1065  -2.7678  -1.6330  -1.5865   0.8242   0.8867   1.7439   2.8296

          k = 0.2000 0.2072 0.0000 ( 31065 PWs)   bands (ev):

   -22.2475 -22.2470 -22.2421 -22.2400 -22.2256 -22.2115 -22.2074 -22.2009
   -22.1994 -22.1927 -13.9026 -13.1807  -7.7531  -7.0529  -4.6529  -4.0777
    -3.3227  -2.5869  -1.6515  -1.4870   0.8103   0.8423   1.3006   2.9743

          k = 0.2000 0.2762 0.0000 ( 31049 PWs)   bands (ev):

   -22.2492 -22.2480 -22.2410 -22.2382 -22.2237 -22.2124 -22.2075 -22.2007
   -22.1994 -22.1927 -13.7910 -13.1748  -7.8128  -7.2240  -4.7664  -3.9744
    -3.4088  -2.5816  -1.9722  -1.3658   0.6141   1.0253   1.2916   2.7719

          k = 0.2000 0.3453 0.0000 ( 31059 PWs)   bands (ev):

   -22.2508 -22.2498 -22.2390 -22.2367 -22.2218 -22.2135 -22.2071 -22.2020
   -22.1980 -22.1929 -13.6628 -13.1874  -7.8728  -7.4239  -4.7269  -3.8497
    -3.4260  -2.6986  -2.3228  -1.4297   0.5016   1.3478   1.4986   2.4529

          k = 0.2000 0.4144 0.0000 ( 31019 PWs)   bands (ev):

   -22.2520 -22.2514 -22.2372 -22.2357 -22.2199 -22.2149 -22.2064 -22.2032
   -22.1965 -22.1934 -13.5297 -13.2280  -7.9022  -7.6195  -4.5535  -3.7562
    -3.4798  -2.8923  -2.4600  -1.6945   0.6537   1.5249   1.7703   2.2528

          k = 0.2000 0.4834 0.0000 ( 31014 PWs)   bands (ev):

   -22.2526 -22.2523 -22.2359 -22.2354 -22.2182 -22.2165 -22.2055 -22.2044
   -22.1952 -22.1941 -13.4049 -13.3013  -7.8741  -7.7773  -4.2799  -3.9599
    -3.3569  -3.1257  -2.3174  -2.0273   0.9582   1.3064   2.0636   2.2750

          k = 0.2667 0.0000 0.0000 ( 31084 PWs)   bands (ev):

   -22.2482 -22.2450 -22.2429 -22.2408 -22.2262 -22.2110 -22.2052 -22.2031
   -22.1975 -22.1945 -13.9527 -13.2299  -7.8940  -7.1775  -4.0955  -3.4430
    -3.2273  -2.4816  -1.8524  -1.5994   0.8926   0.9840   1.7027   2.1322

          k = 0.2667 0.0691 0.0000 ( 31105 PWs)   bands (ev):

   -22.2478 -22.2455 -22.2424 -22.2413 -22.2258 -22.2111 -22.2057 -22.2025
   -22.1980 -22.1942 -13.9352 -13.2243  -7.8830  -7.1807  -4.0766  -3.8644
    -2.8756  -2.7083  -1.7782  -1.4858   0.7766   0.9135   1.7471   2.0248

          k = 0.2667 0.1381 0.0000 ( 31076 PWs)   bands (ev):

   -22.2471 -22.2468 -22.2423 -22.2411 -22.2247 -22.2114 -22.2065 -22.2013
   -22.1990 -22.1937 -13.8841 -13.2094  -7.8536  -7.1948  -4.3452  -4.0238
    -3.0987  -2.6270  -1.5559  -1.5284   0.7331   0.9041   1.2897   2.4901

          k = 0.2667 0.2072 0.0000 ( 31066 PWs)   bands (ev):

   -22.2486 -22.2477 -22.2419 -22.2394 -22.2232 -22.2119 -22.2070 -22.2002
   -22.2000 -22.1933 -13.8032 -13.1908  -7.8169  -7.2317  -4.7340  -3.9535
    -3.4273  -2.5724  -1.9019  -1.3369   0.6445   1.0638   1.2920   2.7819

          k = 0.2667 0.2762 0.0000 ( 31075 PWs)   bands (ev):

   -22.2506 -22.2496 -22.2401 -22.2375 -22.2216 -22.2128 -22.2072 -22.2014
   -22.1985 -22.1930 -13.6991 -13.1772  -7.7865  -7.3026  -4.9812  -3.9028
    -3.6159  -2.6399  -2.3820  -1.3792   0.5771   1.5000   1.5560   2.7754

          k = 0.2667 0.3453 0.0000 ( 31071 PWs)   bands (ev):

   -22.2525 -22.2518 -22.2379 -22.2359 -22.2202 -22.2138 -22.2070 -22.2024
   -22.1971 -22.1930 -13.5811 -13.1792  -7.7683  -7.4072  -5.0588  -3.8724
    -3.7366  -2.7965  -2.7373  -1.6763   0.7951   1.7789   2.0423   2.5912

          k = 0.2667 0.4144 0.0000 ( 31034 PWs)   bands (ev):

   -22.2539 -22.2535 -22.2361 -22.2348 -22.2189 -22.2151 -22.2063 -22.2034
   -22.1958 -22.1933 -13.4609 -13.2062  -7.7510  -7.5275  -4.9674  -4.0294
    -3.7514  -3.0257  -2.7919  -2.0372   1.1289   2.0953   2.1712   2.5710

          k = 0.2667 0.4834 0.0000 ( 31052 PWs)   bands (ev):

   -22.2546 -22.2545 -22.2348 -22.2344 -22.2176 -22.2164 -22.2054 -22.2044
   -22.1947 -22.1938 -13.3512 -13.2639  -7.7120  -7.6362  -4.7333  -4.3983
    -3.5555  -3.2958  -2.6283  -2.3642   1.4931   1.8566   2.4084   2.6312

          k = 0.3333 0.0000 0.0000 ( 31118 PWs)   bands (ev):

   -22.2469 -22.2455 -22.2428 -22.2423 -22.2230 -22.2119 -22.2040 -22.2023
   -22.1983 -22.1958 -13.8257 -13.2702  -8.0476  -7.4989  -3.9068  -3.2180
    -3.0358  -2.4299  -1.9018  -1.1927   0.4346   1.1047   1.3445   1.6762

          k = 0.3333 0.0691 0.0000 ( 31122 PWs)   bands (ev):

   -22.2467 -22.2461 -22.2427 -22.2423 -22.2227 -22.2120 -22.2047 -22.2016
   -22.1989 -22.1954 -13.8096 -13.2633  -8.0264  -7.4889  -3.8908  -3.6557
    -2.7837  -2.6479  -1.7342  -1.2551   0.4519   1.0690   1.2897   1.6326

          k = 0.3333 0.1381 0.0000 ( 31100 PWs)   bands (ev):

   -22.2476 -22.2470 -22.2428 -22.2409 -22.2218 -22.2122 -22.2057 -22.2003
   -22.1999 -22.1947 -13.7623 -13.2444  -7.9655  -7.4624  -4.1986  -3.8478
    -3.0802  -2.6801  -1.6273  -1.4187   0.6810   0.8169   1.3079   2.1192

          k = 0.3333 0.2072 0.0000 ( 31065 PWs)   bands (ev):

   -22.2496 -22.2488 -22.2413 -22.2390 -22.2207 -22.2126 -22.2064 -22.2011
   -22.1989 -22.1940 -13.6882 -13.2187  -7.8736  -7.4300  -4.6801  -3.8017
    -3.4986  -2.6927  -2.1756  -1.3622   0.5694   1.4380   1.5034   2.4646

          k = 0.3333 0.2762 0.0000 ( 31072 PWs)   bands (ev):

   -22.2519 -22.2512 -22.2391 -22.2370 -22.2196 -22.2134 -22.2067 -22.2021
   -22.1976 -22.1935 -13.5941 -13.1948  -7.7665  -7.4072  -5.0436  -3.8806
    -3.7447  -2.7891  -2.6699  -1.6504   0.8325   1.7954   2.1135   2.5825

          k = 0.3333 0.3453 0.0000 ( 31048 PWs)   bands (ev):

   -22.2541 -22.2536 -22.2368 -22.2352 -22.2187 -22.2143 -22.2065 -22.2029
   -22.1963 -22.1933 -13.4896 -13.1826  -7.6653  -7.4080  -5.2463  -4.0907
    -3.9065  -2.9848  -2.9081  -2.0124   1.1990   2.1646   2.5273   2.7504

          k = 0.3333 0.4144 0.0000 ( 31070 PWs)   bands (ev):

   -22.2557 -22.2555 -22.2350 -22.2340 -22.2179 -22.2153 -22.2059 -22.2036
   -22.1952 -22.1933 -13.3862 -13.1920  -7.5864  -7.4353  -5.2633  -4.4161
    -3.9726  -3.2739  -2.8757  -2.3066   1.5486   2.3795   2.5584   3.1590

          k = 0.3333 0.4834 0.0000 ( 31051 PWs)   bands (ev):

   -22.2566 -22.2565 -22.2339 -22.2335 -22.2171 -22.2163 -22.2051 -22.2044
   -22.1942 -22.1936 -13.2961 -13.2296  -7.5283  -7.4789  -5.1011  -4.7981
    -3.8409  -3.5867  -2.7283  -2.5360   1.8660   2.1480   2.9114   3.1558

          k = 0.4000 0.0000 0.0000 ( 31106 PWs)   bands (ev):

   -22.2457 -22.2457 -22.2437 -22.2430 -22.2199 -22.2132 -22.2028 -22.2013
   -22.1993 -22.1972 -13.6895 -13.3383  -8.1203  -7.7742  -3.6822  -3.0356
    -2.9746  -2.4456  -1.7621  -0.9307   0.0866   1.1475   1.1550   1.3876

          k = 0.4000 0.0691 0.0000 ( 31104 PWs)   bands (ev):

   -22.2464 -22.2459 -22.2436 -22.2424 -22.2197 -22.2132 -22.2036 -22.2005
   -22.1999 -22.1967 -13.6749 -13.3296  -8.0941  -7.7552  -3.6716  -3.4208
    -2.8687  -2.6701  -1.5476  -1.1557   0.3073   0.7498   1.4149   1.4274

          k = 0.4000 0.1381 0.0000 ( 31081 PWs)   bands (ev):

   -22.2481 -22.2474 -22.2425 -22.2409 -22.2191 -22.2133 -22.2046 -22.2010
   -22.1992 -22.1957 -13.6327 -13.3055  -8.0175  -7.7007  -3.9759  -3.6493
    -3.1376  -2.8534  -1.6940  -1.3581   0.4988   0.9116   1.5524   1.8971

          k = 0.4000 0.2072 0.0000 ( 31074 PWs)   bands (ev):

   -22.2503 -22.2498 -22.2405 -22.2389 -22.2184 -22.2136 -22.2055 -22.2021
   -22.1979 -22.1948 -13.5671 -13.2708  -7.8963  -7.6184  -4.5113  -3.7249
    -3.5436  -2.8867  -2.2772  -1.5960   0.7547   1.6611   1.7820   2.2587

          k = 0.4000 0.2762 0.0000 ( 31074 PWs)   bands (ev):

   -22.2529 -22.2525 -22.2382 -22.2368 -22.2178 -22.2141 -22.2058 -22.2029
   -22.1966 -22.1941 -13.4854 -13.2338  -7.7429  -7.5217  -4.9571  -4.1173
    -3.6604  -2.9998  -2.7153  -1.9978   1.1907   2.1448   2.2437   2.6444

          k = 0.4000 0.3453 0.0000 ( 31081 PWs)   bands (ev):

   -22.2553 -22.2550 -22.2359 -22.2349 -22.2174 -22.2148 -22.2058 -22.2035
   -22.1955 -22.1936 -13.3974 -13.2043  -7.5797  -7.4294  -5.2681  -4.4819
    -3.8879  -3.2467  -2.8661  -2.3022   1.5664   2.3830   2.6079   3.3223

          k = 0.4000 0.4144 0.0000 ( 31081 PWs)   bands (ev):

   -22.2571 -22.2570 -22.2342 -22.2335 -22.2171 -22.2156 -22.2053 -22.2039
   -22.1946 -22.1934 -13.3146 -13.1926  -7.4401  -7.3613  -5.4056  -4.8167
    -4.0827  -3.5842  -2.8257  -2.4798   1.8666   2.3780   3.0521   3.6391

          k = 0.4000 0.4834 0.0000 ( 31038 PWs)   bands (ev):

   -22.2581 -22.2580 -22.2331 -22.2329 -22.2168 -22.2163 -22.2048 -22.2043
   -22.1939 -22.1935 -13.2480 -13.2062  -7.3552  -7.3325  -5.3504  -5.1300
    -4.0800  -3.8920  -2.7240  -2.6073   2.1065   2.2810   3.3912   3.5990

          k = 0.4667 0.0000 0.0000 ( 31068 PWs)   bands (ev):

   -22.2455 -22.2448 -22.2445 -22.2436 -22.2172 -22.2149 -22.2016 -22.2004
   -22.2000 -22.1986 -13.5553 -13.4350  -8.0980  -7.9796  -3.4384  -3.2036
    -2.7404  -2.5524  -1.4477  -1.0863   0.2253   0.6554   1.1461   1.3345

          k = 0.4667 0.0691 0.0000 ( 31091 PWs)   bands (ev):

   -22.2463 -22.2460 -22.2435 -22.2429 -22.2171 -22.2149 -22.2024 -22.2011
   -22.1992 -22.1979 -13.5426 -13.4243  -8.0710  -7.9551  -3.4415  -3.2864
    -2.9467  -2.8016  -1.3250  -1.1795   0.2923   0.4342   1.4692   1.6718

          k = 0.4667 0.1381 0.0000 ( 31102 PWs)   bands (ev):

   -22.2482 -22.2479 -22.2419 -22.2413 -22.2167 -22.2148 -22.2035 -22.2022
   -22.1980 -22.1968 -13.5062 -13.3941  -7.9915  -7.8832  -3.7148  -3.5291
    -3.2258  -3.0710  -1.6141  -1.4539   0.5645   0.7778   1.8349   1.9578

          k = 0.4667 0.2072 0.0000 ( 31101 PWs)   bands (ev):

   -22.2507 -22.2505 -22.2397 -22.2392 -22.2164 -22.2148 -22.2043 -22.2032
   -22.1968 -22.1958 -13.4506 -13.3492  -7.8642  -7.7694  -4.2580  -3.9644
    -3.3508  -3.1162  -2.1581  -1.9001   1.0782   1.4353   2.0776   2.2836

          k = 0.4667 0.2762 0.0000 ( 31068 PWs)   bands (ev):

   -22.2534 -22.2532 -22.2374 -22.2370 -22.2163 -22.2151 -22.2048 -22.2038
   -22.1957 -22.1948 -13.3833 -13.2973  -7.6991  -7.6244  -4.7455  -4.4462
    -3.4752  -3.2417  -2.5701  -2.3176   1.5599   1.9181   2.4958   2.7506

          k = 0.4667 0.3453 0.0000 ( 31065 PWs)   bands (ev):

   -22.2559 -22.2558 -22.2353 -22.2349 -22.2163 -22.2155 -22.2049 -22.2041
   -22.1948 -22.1941 -13.3143 -13.2483  -7.5156  -7.4667  -5.1267  -4.8498
    -3.7538  -3.5248  -2.7245  -2.5343   1.8846   2.1597   3.0163   3.3111

          k = 0.4667 0.4144 0.0000 ( 31086 PWs)   bands (ev):

   -22.2579 -22.2578 -22.2337 -22.2334 -22.2165 -22.2160 -22.2047 -22.2042
   -22.1940 -22.1936 -13.2546 -13.2130  -7.3478  -7.3253  -5.3679  -5.1564
    -4.0409  -3.8618  -2.7268  -2.6106   2.1103   2.2834   3.4346   3.6558

          k = 0.4667 0.4834 0.0000 ( 31072 PWs)   bands (ev):

   -22.2589 -22.2589 -22.2327 -22.2326 -22.2165 -22.2163 -22.2045 -22.2043
   -22.1936 -22.1935 -13.2143 -13.2001  -7.2437  -7.2387  -5.4447  -5.3622
    -4.1775  -4.1080  -2.6890  -2.6497   2.2569   2.3160   3.6826   3.7830

     the Fermi energy is    -0.8552 ev

!    total energy              =    -413.80380230 Ry
     estimated scf accuracy    <          4.2E-11 Ry
     smearing contrib. (-TS)   =       0.00007413 Ry
     internal energy E=F+TS    =    -413.80387643 Ry

     The total energy is F=E-TS. E is the sum of the following terms:
     one-electron contribution =   -1176.66648637 Ry
     hartree contribution      =     600.45020269 Ry
     xc contribution           =    -154.39365522 Ry
     ewald contribution        =     316.80606247 Ry

     convergence has been achieved in  12 iterations

     negative rho (up, down):  2.888E-05 0.000E+00

     Forces acting on atoms (cartesian axes, Ry/au):

     atom    1 type  1   force =     0.00115658    0.00000000   -0.00079653
     atom    2 type  1   force =     0.00115017    0.00000000    0.00078815
     atom    3 type  2   force =    -0.00115422    0.00000000   -0.00049115
     atom    4 type  2   force =    -0.00115254    0.00000000    0.00049952

     Total force =     0.002658     Total SCF correction =     0.000014

     BFGS Geometry Optimization

     number of scf cycles    =   1
     number of bfgs steps    =   0

     energy   new            =    -413.8038023050 Ry

     new trust radius        =       0.0014043296 bohr
     new conv_thr            =            1.0E-10 Ry


ATOMIC_POSITIONS (crystal)
Sn            0.5841282854        0.7500000000        0.1445351831
Sn            0.0841261093        0.2500000000        0.0066104591
Se            0.0299780296        0.2500000000        0.1423062512
Se            0.5299755498        0.7500000000        0.0088381605



     Writing output data file ./wfc-out/pwscf.save/
     NEW-OLD atomic charge density approx. for the potential

     negative rho (up, down):  4.019E-05 0.000E+00

     total cpu time spent up to now is       65.8 secs

     Self-consistent Calculation

     iteration #  1     ecut=    80.00 Ry     beta= 0.70
     Davidson diagonalization with overlap
     ethr =  1.00E-06,  avg # of iterations =  2.0

     Threshold (ethr) on eigenvalues was too large:
     Diagonalizing with lowered threshold

     Davidson diagonalization with overlap
     ethr =  4.67E-10,  avg # of iterations =  6.7

     negative rho (up, down):  2.907E-05 0.000E+00

     total cpu time spent up to now is       76.4 secs

     total energy              =    -413.80380909 Ry
     estimated scf accuracy    <       0.00000028 Ry

     iteration #  2     ecut=    80.00 Ry     beta= 0.70
     Davidson diagonalization with overlap
     ethr =  7.03E-10,  avg # of iterations =  2.1

     negative rho (up, down):  2.861E-05 0.000E+00

     total cpu time spent up to now is       80.5 secs

     total energy              =    -413.80380905 Ry
     estimated scf accuracy    <       0.00000018 Ry

     iteration #  3     ecut=    80.00 Ry     beta= 0.70
     Davidson diagonalization with overlap
     ethr =  4.58E-10,  avg # of iterations =  2.0

     negative rho (up, down):  2.877E-05 0.000E+00

     total cpu time spent up to now is       84.6 secs

     total energy              =    -413.80380909 Ry
     estimated scf accuracy    <       0.00000001 Ry

     iteration #  4     ecut=    80.00 Ry     beta= 0.70
     Davidson diagonalization with overlap
     ethr =  3.33E-11,  avg # of iterations =  3.2

     negative rho (up, down):  2.885E-05 0.000E+00

     total cpu time spent up to now is       88.9 secs

     total energy              =    -413.80380909 Ry
     estimated scf accuracy    <       0.00000003 Ry

     iteration #  5     ecut=    80.00 Ry     beta= 0.70
     Davidson diagonalization with overlap
     ethr =  3.33E-11,  avg # of iterations =  2.6

     negative rho (up, down):  2.887E-05 0.000E+00

     total cpu time spent up to now is       93.0 secs

     total energy              =    -413.80380909 Ry
     estimated scf accuracy    <          1.8E-09 Ry

     iteration #  6     ecut=    80.00 Ry     beta= 0.70
     Davidson diagonalization with overlap
     ethr =  4.54E-12,  avg # of iterations =  2.6

     negative rho (up, down):  2.888E-05 0.000E+00

     total cpu time spent up to now is       97.2 secs

     total energy              =    -413.80380909 Ry
     estimated scf accuracy    <          1.1E-10 Ry

     iteration #  7     ecut=    80.00 Ry     beta= 0.70
     Davidson diagonalization with overlap
     ethr =  2.70E-13,  avg # of iterations =  3.3

     negative rho (up, down):  2.889E-05 0.000E+00

     total cpu time spent up to now is      101.7 secs

     End of self-consistent calculation

          k = 0.0000 0.0000 0.0000 ( 31059 PWs)   bands (ev):

   -22.2509 -22.2439 -22.2431 -22.2366 -22.2336 -22.2098 -22.2074 -22.2041
   -22.1958 -22.1914 -14.2137 -13.2084  -7.2376  -6.2341  -4.3597  -4.0240
    -3.8915  -2.7752  -2.7149  -1.5488   0.5916   2.3557   2.8087   2.9411

          k = 0.0000 0.0691 0.0000 ( 31101 PWs)   bands (ev):

   -22.2504 -22.2436 -22.2434 -22.2373 -22.2330 -22.2099 -22.2074 -22.2039
   -22.1961 -22.1914 -14.1942 -13.2046  -7.2968  -6.3073  -4.3574  -4.0042
    -3.8388  -2.7849  -2.6015  -1.5627   0.6056   2.4332   2.7321   2.8150

          k = 0.0000 0.1381 0.0000 ( 31049 PWs)   bands (ev):

   -22.2490 -22.2442 -22.2425 -22.2388 -22.2315 -22.2102 -22.2074 -22.2032
   -22.1968 -22.1915 -14.1369 -13.1954  -7.4551  -6.5123  -4.3299  -3.9319
    -3.7027  -2.7447  -2.3634  -1.6091   0.6525   2.2227   2.5122   2.5848

          k = 0.0000 0.2072 0.0000 ( 31043 PWs)   bands (ev):

   -22.2471 -22.2454 -22.2410 -22.2404 -22.2295 -22.2108 -22.2074 -22.2021
   -22.1980 -22.1917 -14.0450 -13.1873  -7.6661  -6.8089  -4.2493  -3.8001
    -3.5134  -2.6661  -2.0541  -1.6938   0.7443   1.5783   2.0513   2.5393

          k = 0.0000 0.2762 0.0000 ( 31031 PWs)   bands (ev):

   -22.2467 -22.2457 -22.2414 -22.2394 -22.2271 -22.2117 -22.2071 -22.2007
   -22.1994 -22.1920 -13.9245 -13.1902  -7.8765  -7.1458  -4.1094  -3.6160
    -3.2997  -2.5781  -1.8052  -1.7084   0.8926   0.9359   1.5738   2.1649

          k = 0.0000 0.3453 0.0000 ( 30967 PWs)   bands (ev):

   -22.2479 -22.2462 -22.2405 -22.2381 -22.2244 -22.2130 -22.2066 -22.2009
   -22.1991 -22.1926 -13.7838 -13.2157  -8.0396  -7.4766  -3.9188  -3.3973
    -3.1109  -2.5188  -1.8877  -1.3660   0.3653   1.0955   1.1874   1.6471

          k = 0.0000 0.4144 0.0000 ( 30937 PWs)   bands (ev):

   -22.2486 -22.2475 -22.2390 -22.2373 -22.2217 -22.2147 -22.2059 -22.2024
   -22.1974 -22.1934 -13.6345 -13.2733  -8.1211  -7.7641  -3.6930  -3.2074
    -3.0000  -2.5317  -1.8325  -1.1476   0.0075   0.9701   1.0317   1.4158

          k = 0.0000 0.4834 0.0000 ( 30948 PWs)   bands (ev):

   -22.2489 -22.2485 -22.2378 -22.2372 -22.2191 -22.2167 -22.2049 -22.2037
   -22.1958 -22.1944 -13.4907 -13.3665  -8.1021  -7.9795  -3.4558  -3.2526
    -2.8297  -2.6423  -1.5931  -1.2795   0.1083   0.5245   0.9641   1.1615

          k = 0.0667 0.0000 0.0000 ( 31082 PWs)   bands (ev):

   -22.2507 -22.2438 -22.2433 -22.2369 -22.2331 -22.2098 -22.2072 -22.2041
   -22.1959 -22.1916 -14.1963 -13.2077  -7.3030  -6.3153  -4.3554  -3.9523
    -3.8621  -2.6958  -2.6686  -1.5693   0.6051   2.3984   2.6422   2.9309

          k = 0.0667 0.0691 0.0000 ( 31054 PWs)   bands (ev):

   -22.2502 -22.2437 -22.2433 -22.2376 -22.2324 -22.2099 -22.2073 -22.2038
   -22.1962 -22.1916 -14.1770 -13.2038  -7.3524  -6.3798  -4.3476  -4.0690
    -3.6831  -2.8353  -2.4431  -1.5804   0.6206   2.3702   2.4653   2.9076

          k = 0.0667 0.1381 0.0000 ( 31067 PWs)   bands (ev):

   -22.2488 -22.2444 -22.2423 -22.2391 -22.2309 -22.2103 -22.2074 -22.2030
   -22.1970 -22.1917 -14.1200 -13.1943  -7.4880  -6.5634  -4.3122  -4.1349
    -3.4356  -2.8874  -2.1558  -1.6171   0.6711   1.8152   2.5468   2.7860

          k = 0.0667 0.2072 0.0000 ( 31040 PWs)   bands (ev):

   -22.2469 -22.2457 -22.2408 -22.2407 -22.2289 -22.2109 -22.2074 -22.2019
   -22.1981 -22.1918 -14.0288 -13.1857  -7.6752  -6.8358  -4.2296  -4.1040
    -3.1843  -2.8541  -1.8635  -1.6815   0.7655   1.2262   2.2636   2.4021

          k = 0.0667 0.2762 0.0000 ( 31019 PWs)   bands (ev):

   -22.2470 -22.2458 -22.2415 -22.2392 -22.2266 -22.2118 -22.2072 -22.2005
   -22.1995 -22.1921 -13.9092 -13.1877  -7.8675  -7.1526  -4.0925  -3.9815
    -2.9675  -2.7713  -1.7531  -1.6140   0.7229   0.9078   1.7260   1.9250

          k = 0.0667 0.3453 0.0000 ( 31000 PWs)   bands (ev):

   -22.2482 -22.2466 -22.2403 -22.2379 -22.2241 -22.2131 -22.2067 -22.2010
   -22.1989 -22.1926 -13.7698 -13.2118  -8.0196  -7.4690  -3.9070  -3.7854
    -2.8509  -2.6961  -1.7674  -1.4587   0.3925   0.9972   1.2964   1.4917

          k = 0.0667 0.4144 0.0000 ( 30963 PWs)   bands (ev):

   -22.2491 -22.2480 -22.2387 -22.2371 -22.2215 -22.2147 -22.2060 -22.2025
   -22.1972 -22.1933 -13.6223 -13.2675  -8.0959  -7.7468  -3.6893  -3.5496
    -2.8833  -2.7061  -1.6669  -1.4070   0.2447   0.6347   1.2430   1.4607

          k = 0.0667 0.4834 0.0000 ( 30945 PWs)   bands (ev):

   -22.2493 -22.2489 -22.2375 -22.2369 -22.2189 -22.2167 -22.2050 -22.2038
   -22.1957 -22.1944 -13.4805 -13.3585  -8.0761  -7.9562  -3.4734  -3.3795
    -2.9522  -2.8364  -1.5141  -1.4198   0.2043   0.3210   1.2994   1.6015

          k = 0.1333 0.0000 0.0000 ( 31060 PWs)   bands (ev):

   -22.2501 -22.2437 -22.2435 -22.2378 -22.2315 -22.2100 -22.2067 -22.2039
   -22.1961 -22.1922 -14.1452 -13.2075  -7.4725  -6.5358  -4.3227  -3.7752
    -3.7606  -2.6420  -2.3906  -1.6323   0.6514   2.1709   2.4744   2.6431

          k = 0.1333 0.0691 0.0000 ( 31063 PWs)   bands (ev):

   -22.2496 -22.2441 -22.2430 -22.2384 -22.2309 -22.2101 -22.2069 -22.2035
   -22.1965 -22.1921 -14.1262 -13.2033  -7.5000  -6.5797  -4.3066  -4.0875
    -3.4120  -2.8447  -2.1441  -1.6333   0.6706   1.8198   2.4794   2.8372

          k = 0.1333 0.1381 0.0000 ( 31091 PWs)   bands (ev):

   -22.2483 -22.2450 -22.2419 -22.2399 -22.2294 -22.2104 -22.2072 -22.2026
   -22.1973 -22.1921 -14.0703 -13.1929  -7.5808  -6.7101  -4.3216  -4.2574
    -3.0726  -3.0427  -1.8331  -1.6349   0.7287   1.2900   2.2619   2.9528

          k = 0.1333 0.2072 0.0000 ( 31068 PWs)   bands (ev):

   -22.2467 -22.2463 -22.2414 -22.2404 -22.2275 -22.2110 -22.2073 -22.2014
   -22.1985 -22.1921 -13.9810 -13.1825  -7.7042  -6.9175  -4.4359  -4.1718
    -3.1277  -2.8052  -1.6363  -1.6251   0.8219   0.8642   1.7367   2.7980

          k = 0.1333 0.2762 0.0000 ( 31042 PWs)   bands (ev):

   -22.2478 -22.2465 -22.2414 -22.2387 -22.2253 -22.2119 -22.2072 -22.1999
   -22.1999 -22.1922 -13.8643 -13.1816  -7.8439  -7.1763  -4.4204  -4.0447
    -3.1123  -2.6716  -1.6501  -1.5777   0.6847   0.8717   1.2831   2.4339

          k = 0.1333 0.3453 0.0000 ( 31050 PWs)   bands (ev):

   -22.2492 -22.2479 -22.2397 -22.2373 -22.2230 -22.2132 -22.2068 -22.2013
   -22.1984 -22.1926 -13.7291 -13.2015  -7.9620  -7.4489  -4.2872  -3.8774
    -3.0605  -2.7006  -1.8253  -1.5035   0.6003   0.7421   1.3222   2.0324

          k = 0.1333 0.4144 0.0000 ( 31005 PWs)   bands (ev):

   -22.2502 -22.2493 -22.2380 -22.2364 -22.2207 -22.2147 -22.2061 -22.2027
   -22.1968 -22.1932 -13.5868 -13.2517  -8.0217  -7.6969  -4.0621  -3.6903
    -3.0884  -2.8501  -1.9377  -1.5030   0.3962   0.8160   1.5714   1.7908

          k = 0.1333 0.4834 0.0000 ( 30957 PWs)   bands (ev):

   -22.2506 -22.2503 -22.2368 -22.2362 -22.2185 -22.2165 -22.2051 -22.2039
   -22.1954 -22.1941 -13.4513 -13.3362  -7.9992  -7.8878  -3.7888  -3.5956
    -3.1753  -3.0491  -1.8441  -1.6457   0.4495   0.6655   1.8671   1.9008

          k = 0.2000 0.0000 0.0000 ( 31064 PWs)   bands (ev):

   -22.2492 -22.2443 -22.2431 -22.2391 -22.2291 -22.2103 -22.2059 -22.2035
   -22.1966 -22.1931 -14.0631 -13.2129  -7.6886  -6.8418  -4.2374  -3.6342
    -3.4995  -2.5644  -2.0153  -1.7355   0.7437   1.5846   2.1616   2.4238

          k = 0.2000 0.0691 0.0000 ( 31090 PWs)   bands (ev):

   -22.2487 -22.2447 -22.2426 -22.2397 -22.2285 -22.2104 -22.2062 -22.2030
   -22.1970 -22.1930 -14.0448 -13.2082  -7.6940  -6.8633  -4.2179  -4.0160
    -3.1201  -2.7916  -1.8043  -1.7133   0.7661   1.2576   2.2293   2.4674

          k = 0.2000 0.1381 0.0000 ( 31076 PWs)   bands (ev):

   -22.2476 -22.2458 -22.2414 -22.2410 -22.2272 -22.2107 -22.2068 -22.2019
   -22.1979 -22.1927 -13.9908 -13.1960  -7.7137  -6.9317  -4.3929  -4.1623
    -3.1075  -2.7697  -1.6334  -1.5874   0.8253   0.8868   1.7438   2.8290

          k = 0.2000 0.2072 0.0000 ( 31065 PWs)   bands (ev):

   -22.2473 -22.2468 -22.2419 -22.2398 -22.2254 -22.2113 -22.2072 -22.2006
   -22.1991 -22.1925 -13.9049 -13.1824  -7.7543  -7.0532  -4.6545  -4.0792
    -3.3235  -2.5888  -1.6525  -1.4876   0.8110   0.8432   1.3016   2.9746

          k = 0.2000 0.2762 0.0000 ( 31049 PWs)   bands (ev):

   -22.2491 -22.2479 -22.2408 -22.2380 -22.2235 -22.2122 -22.2072 -22.2005
   -22.1992 -22.1924 -13.7932 -13.1765  -7.8141  -7.2246  -4.7679  -3.9762
    -3.4094  -2.5834  -1.9730  -1.3665   0.6151   1.0263   1.2928   2.7724

          k = 0.2000 0.3453 0.0000 ( 31059 PWs)   bands (ev):

   -22.2507 -22.2497 -22.2388 -22.2365 -22.2216 -22.2134 -22.2069 -22.2017
   -22.1977 -22.1926 -13.6650 -13.1891  -7.8743  -7.4248  -4.7283  -3.8516
    -3.4269  -2.7004  -2.3229  -1.4301   0.5026   1.3487   1.4997   2.4535

          k = 0.2000 0.4144 0.0000 ( 31019 PWs)   bands (ev):

   -22.2519 -22.2512 -22.2370 -22.2355 -22.2198 -22.2148 -22.2062 -22.2029
   -22.1962 -22.1931 -13.5317 -13.2298  -7.9037  -7.6206  -4.5549  -3.7581
    -3.4812  -2.8941  -2.4594  -1.6944   0.6543   1.5253   1.7714   2.2540

          k = 0.2000 0.4834 0.0000 ( 31014 PWs)   bands (ev):

   -22.2524 -22.2522 -22.2357 -22.2352 -22.2180 -22.2163 -22.2052 -22.2041
   -22.1949 -22.1938 -13.4068 -13.3032  -7.8756  -7.7786  -4.2813  -3.9615
    -3.3586  -3.1275  -2.3168  -2.0269   0.9586   1.3066   2.0648   2.2764

          k = 0.2667 0.0000 0.0000 ( 31084 PWs)   bands (ev):

   -22.2480 -22.2449 -22.2427 -22.2406 -22.2261 -22.2108 -22.2049 -22.2029
   -22.1972 -22.1943 -13.9550 -13.2317  -7.8947  -7.1774  -4.0965  -3.4457
    -3.2286  -2.4838  -1.8530  -1.5993   0.8940   0.9825   1.7031   2.1299

          k = 0.2667 0.0691 0.0000 ( 31105 PWs)   bands (ev):

   -22.2477 -22.2454 -22.2422 -22.2411 -22.2256 -22.2109 -22.2054 -22.2023
   -22.1977 -22.1940 -13.9376 -13.2261  -7.8837  -7.1807  -4.0776  -3.8665
    -2.8774  -2.7102  -1.7787  -1.4861   0.7759   0.9148   1.7465   2.0247

          k = 0.2667 0.1381 0.0000 ( 31076 PWs)   bands (ev):

   -22.2470 -22.2466 -22.2421 -22.2410 -22.2245 -22.2112 -22.2062 -22.2011
   -22.1987 -22.1935 -13.8864 -13.2111  -7.8544  -7.1949  -4.3472  -4.0250
    -3.1003  -2.6288  -1.5567  -1.5290   0.7332   0.9052   1.2901   2.4900

          k = 0.2667 0.2072 0.0000 ( 31066 PWs)   bands (ev):

   -22.2484 -22.2475 -22.2417 -22.2392 -22.2230 -22.2118 -22.2068 -22.1999
   -22.1997 -22.1930 -13.8055 -13.1925  -7.8179  -7.2320  -4.7358  -3.9550
    -3.4285  -2.5740  -1.9024  -1.3377   0.6454   1.0643   1.2930   2.7828

          k = 0.2667 0.2762 0.0000 ( 31075 PWs)   bands (ev):

   -22.2505 -22.2495 -22.2399 -22.2373 -22.2215 -22.2126 -22.2070 -22.2011
   -22.1983 -22.1928 -13.7013 -13.1790  -7.7877  -7.3032  -4.9828  -3.9047
    -3.6168  -2.6416  -2.3820  -1.3794   0.5779   1.5010   1.5567   2.7766

          k = 0.2667 0.3453 0.0000 ( 31071 PWs)   bands (ev):

   -22.2523 -22.2516 -22.2377 -22.2357 -22.2200 -22.2137 -22.2067 -22.2022
   -22.1969 -22.1927 -13.5833 -13.1810  -7.7698  -7.4081  -5.0601  -3.8744
    -3.7379  -2.7982  -2.7366  -1.6760   0.7955   1.7798   2.0430   2.5923

          k = 0.2667 0.4144 0.0000 ( 31034 PWs)   bands (ev):

   -22.2538 -22.2534 -22.2359 -22.2346 -22.2187 -22.2149 -22.2060 -22.2032
   -22.1956 -22.1930 -13.4629 -13.2081  -7.7526  -7.5287  -4.9685  -4.0307
    -3.7533  -3.0276  -2.7909  -2.0365   1.1292   2.0961   2.1714   2.5723

          k = 0.2667 0.4834 0.0000 ( 31052 PWs)   bands (ev):

   -22.2545 -22.2544 -22.2347 -22.2342 -22.2174 -22.2162 -22.2051 -22.2042
   -22.1944 -22.1936 -13.3532 -13.2658  -7.7136  -7.6377  -4.7344  -4.3994
    -3.5573  -3.2977  -2.6274  -2.3634   1.4934   1.8568   2.4092   2.6322

          k = 0.3333 0.0000 0.0000 ( 31118 PWs)   bands (ev):

   -22.2468 -22.2453 -22.2426 -22.2422 -22.2229 -22.2117 -22.2038 -22.2021
   -22.1981 -22.1956 -13.8281 -13.2722  -8.0480  -7.4989  -3.9078  -3.2208
    -3.0372  -2.4325  -1.9025  -1.1930   0.4335   1.1062   1.3453   1.6749

          k = 0.3333 0.0691 0.0000 ( 31122 PWs)   bands (ev):

   -22.2466 -22.2459 -22.2425 -22.2421 -22.2225 -22.2118 -22.2044 -22.2013
   -22.1986 -22.1951 -13.8119 -13.2652  -8.0268  -7.4889  -3.8918  -3.6580
    -2.7854  -2.6504  -1.7350  -1.2554   0.4512   1.0702   1.2899   1.6330

          k = 0.3333 0.1381 0.0000 ( 31100 PWs)   bands (ev):

   -22.2474 -22.2468 -22.2426 -22.2407 -22.2217 -22.2120 -22.2054 -22.2000
   -22.1997 -22.1944 -13.7646 -13.2463  -7.9660  -7.4625  -4.2007  -3.8490
    -3.0825  -2.6816  -1.6273  -1.4196   0.6816   0.8166   1.3089   2.1196

          k = 0.3333 0.2072 0.0000 ( 31065 PWs)   bands (ev):

   -22.2495 -22.2486 -22.2411 -22.2388 -22.2205 -22.2125 -22.2061 -22.2008
   -22.1987 -22.1937 -13.6905 -13.2206  -7.8743  -7.4303  -4.6821  -3.8032
    -3.5006  -2.6943  -2.1752  -1.3626   0.5699   1.4379   1.5044   2.4657

          k = 0.3333 0.2762 0.0000 ( 31072 PWs)   bands (ev):

   -22.2518 -22.2511 -22.2389 -22.2368 -22.2194 -22.2132 -22.2064 -22.2018
   -22.1973 -22.1932 -13.5963 -13.1966  -7.7675  -7.4078  -5.0452  -3.8829
    -3.7460  -2.7907  -2.6690  -1.6501   0.8329   1.7961   2.1137   2.5839

          k = 0.3333 0.3453 0.0000 ( 31048 PWs)   bands (ev):

   -22.2539 -22.2535 -22.2366 -22.2350 -22.2185 -22.2141 -22.2062 -22.2027
   -22.1960 -22.1930 -13.4917 -13.1844  -7.6667  -7.4090  -5.2477  -4.0927
    -3.9078  -2.9866  -2.9071  -2.0116   1.1994   2.1650   2.5282   2.7510

          k = 0.3333 0.4144 0.0000 ( 31070 PWs)   bands (ev):

   -22.2556 -22.2553 -22.2348 -22.2338 -22.2177 -22.2151 -22.2057 -22.2034
   -22.1949 -22.1930 -13.3882 -13.1939  -7.5880  -7.4367  -5.2643  -4.4173
    -3.9741  -3.2756  -2.8750  -2.3058   1.5489   2.3801   2.5586   3.1595

          k = 0.3333 0.4834 0.0000 ( 31051 PWs)   bands (ev):

   -22.2565 -22.2564 -22.2337 -22.2333 -22.2169 -22.2161 -22.2049 -22.2041
   -22.1940 -22.1933 -13.2981 -13.2315  -7.5301  -7.4806  -5.1019  -4.7989
    -3.8424  -3.5882  -2.7277  -2.5354   1.8663   2.1484   2.9116   3.1562

          k = 0.4000 0.0000 0.0000 ( 31106 PWs)   bands (ev):

   -22.2455 -22.2455 -22.2436 -22.2429 -22.2198 -22.2130 -22.2025 -22.2010
   -22.1990 -22.1970 -13.6918 -13.3403  -8.1205  -7.7742  -3.6833  -3.0369
    -2.9775  -2.4484  -1.7630  -0.9316   0.0861   1.1486   1.1545   1.3889

          k = 0.4000 0.0691 0.0000 ( 31104 PWs)   bands (ev):

   -22.2462 -22.2458 -22.2434 -22.2422 -22.2195 -22.2130 -22.2033 -22.2002
   -22.1997 -22.1964 -13.6772 -13.3316  -8.0944  -7.7552  -3.6727  -3.4231
    -2.8704  -2.6729  -1.5486  -1.1559   0.3064   0.7500   1.4158   1.4287

          k = 0.4000 0.1381 0.0000 ( 31081 PWs)   bands (ev):

   -22.2479 -22.2472 -22.2423 -22.2407 -22.2189 -22.2131 -22.2044 -22.2008
   -22.1989 -22.1954 -13.6349 -13.3075  -8.0179  -7.7008  -3.9781  -3.6505
    -3.1404  -2.8549  -1.6935  -1.3587   0.4990   0.9105   1.5536   1.8981

          k = 0.4000 0.2072 0.0000 ( 31074 PWs)   bands (ev):

   -22.2502 -22.2496 -22.2403 -22.2388 -22.2182 -22.2134 -22.2052 -22.2018
   -22.1976 -22.1946 -13.5693 -13.2728  -7.8969  -7.6187  -4.5134  -3.7270
    -3.5455  -2.8883  -2.2762  -1.5958   0.7547   1.6603   1.7828   2.2600

          k = 0.4000 0.2762 0.0000 ( 31074 PWs)   bands (ev):

   -22.2528 -22.2524 -22.2380 -22.2366 -22.2176 -22.2139 -22.2056 -22.2026
   -22.1963 -22.1938 -13.4876 -13.2357  -7.7438  -7.5223  -4.9589  -4.1197
    -3.6618  -3.0015  -2.7141  -1.9970   1.1909   2.1450   2.2443   2.6446

          k = 0.4000 0.3453 0.0000 ( 31081 PWs)   bands (ev):

   -22.2551 -22.2549 -22.2358 -22.2347 -22.2172 -22.2147 -22.2055 -22.2032
   -22.1952 -22.1933 -13.3995 -13.2063  -7.5810  -7.4305  -5.2695  -4.4838
    -3.8889  -3.2482  -2.8653  -2.3014   1.5669   2.3840   2.6078   3.3220

          k = 0.4000 0.4144 0.0000 ( 31081 PWs)   bands (ev):

   -22.2570 -22.2569 -22.2340 -22.2333 -22.2169 -22.2154 -22.2051 -22.2036
   -22.1943 -22.1931 -13.3166 -13.1945  -7.4418  -7.3628  -5.4065  -4.8177
    -4.0838  -3.5855  -2.8253  -2.4792   1.8671   2.3786   3.0518   3.6389

          k = 0.4000 0.4834 0.0000 ( 31038 PWs)   bands (ev):

   -22.2580 -22.2579 -22.2330 -22.2327 -22.2166 -22.2161 -22.2045 -22.2040
   -22.1936 -22.1932 -13.2500 -13.2081  -7.3573  -7.3344  -5.3509  -5.1305
    -4.0812  -3.8932  -2.7237  -2.6070   2.1068   2.2813   3.3910   3.5990

          k = 0.4667 0.0000 0.0000 ( 31068 PWs)   bands (ev):

   -22.2453 -22.2446 -22.2444 -22.2434 -22.2170 -22.2147 -22.2013 -22.2001
   -22.1998 -22.1984 -13.5575 -13.4371  -8.0981  -7.9796  -3.4395  -3.2048
    -2.7434  -2.5554  -1.4489  -1.0876   0.2252   0.6552   1.1474   1.3358

          k = 0.4667 0.0691 0.0000 ( 31091 PWs)   bands (ev):

   -22.2462 -22.2458 -22.2433 -22.2427 -22.2169 -22.2147 -22.2021 -22.2008
   -22.1990 -22.1977 -13.5449 -13.4265  -8.0712  -7.9551  -3.4426  -3.2880
    -2.9491  -2.8045  -1.3260  -1.1800   0.2917   0.4341   1.4701   1.6728

          k = 0.4667 0.1381 0.0000 ( 31102 PWs)   bands (ev):

   -22.2480 -22.2478 -22.2417 -22.2411 -22.2166 -22.2146 -22.2032 -22.2020
   -22.1977 -22.1966 -13.5084 -13.3962  -7.9917  -7.8833  -3.7172  -3.5309
    -3.2281  -3.0726  -1.6136  -1.4540   0.5640   0.7767   1.8360   1.9588

          k = 0.4667 0.2072 0.0000 ( 31101 PWs)   bands (ev):

   -22.2505 -22.2503 -22.2396 -22.2390 -22.2163 -22.2147 -22.2041 -22.2029
   -22.1965 -22.1955 -13.4527 -13.3513  -7.8646  -7.7697  -4.2603  -3.9669
    -3.3523  -3.1177  -2.1571  -1.8994   1.0779   1.4347   2.0782   2.2842

          k = 0.4667 0.2762 0.0000 ( 31068 PWs)   bands (ev):

   -22.2532 -22.2531 -22.2372 -22.2368 -22.2161 -22.2149 -22.2046 -22.2036
   -22.1954 -22.1946 -13.3854 -13.2993  -7.6999  -7.6250  -4.7475  -4.4484
    -3.4767  -3.2433  -2.5690  -2.3166   1.5603   1.9187   2.4957   2.7501

          k = 0.4667 0.3453 0.0000 ( 31065 PWs)   bands (ev):

   -22.2558 -22.2557 -22.2351 -22.2347 -22.2162 -22.2153 -22.2047 -22.2039
   -22.1945 -22.1938 -13.3164 -13.2503  -7.5168  -7.4678  -5.1282  -4.8515
    -3.7549  -3.5261  -2.7239  -2.5336   1.8853   2.1605   3.0157   3.3102

          k = 0.4667 0.4144 0.0000 ( 31086 PWs)   bands (ev):

   -22.2577 -22.2577 -22.2335 -22.2332 -22.2163 -22.2158 -22.2045 -22.2040
   -22.1938 -22.1934 -13.2566 -13.2149  -7.3496  -7.3270  -5.3687  -5.1573
    -4.0418  -3.8628  -2.7265  -2.6102   2.1108   2.2839   3.4340   3.6552

          k = 0.4667 0.4834 0.0000 ( 31072 PWs)   bands (ev):

   -22.2588 -22.2588 -22.2325 -22.2325 -22.2163 -22.2161 -22.2042 -22.2041
   -22.1933 -22.1932 -13.2163 -13.2020  -7.2460  -7.2409  -5.4449  -5.3624
    -4.1785  -4.1090  -2.6888  -2.6495   2.2571   2.3163   3.6824   3.7827

     the Fermi energy is    -0.8567 ev

!    total energy              =    -413.80380909 Ry
     estimated scf accuracy    <          1.5E-12 Ry
     smearing contrib. (-TS)   =       0.00007495 Ry
     internal energy E=F+TS    =    -413.80388404 Ry

     The total energy is F=E-TS. E is the sum of the following terms:
     one-electron contribution =   -1176.82385277 Ry
     hartree contribution      =     600.52851354 Ry
     xc contribution           =    -154.39427545 Ry
     ewald contribution        =     316.88573064 Ry

     convergence has been achieved in   7 iterations

     negative rho (up, down):  2.889E-05 0.000E+00

     Forces acting on atoms (cartesian axes, Ry/au):

     atom    1 type  1   force =     0.00110403    0.00000000   -0.00065175
     atom    2 type  1   force =     0.00110434    0.00000000    0.00064509
     atom    3 type  2   force =    -0.00110484    0.00000000   -0.00038325
     atom    4 type  2   force =    -0.00110353    0.00000000    0.00038990

     Total force =     0.002453     Total SCF correction =     0.000003

     number of scf cycles    =   2
     number of bfgs steps    =   1

     energy   old            =    -413.8038023050 Ry
     energy   new            =    -413.8038090933 Ry

     CASE: energy  _new < energy  _old


     WARNING: bfgs curvature condition failed, Theta= 0.869
     new trust radius        =       0.0015447626 bohr
     new conv_thr            =            6.8E-12 Ry


ATOMIC_POSITIONS (crystal)
Sn            0.5842848858        0.7500000000        0.1445137108
Sn            0.0842825030        0.2500000000        0.0066317103
Se            0.0298214341        0.2500000000        0.1422934362
Se            0.5298191511        0.7500000000        0.0088511966



     Writing output data file ./wfc-out/pwscf.save/
     NEW-OLD atomic charge density approx. for the potential

     negative rho (up, down):  4.232E-05 0.000E+00

     total cpu time spent up to now is      106.7 secs

     Self-consistent Calculation

     iteration #  1     ecut=    80.00 Ry     beta= 0.70
     Davidson diagonalization with overlap
     ethr =  1.00E-06,  avg # of iterations =  2.0

     Threshold (ethr) on eigenvalues was too large:
     Diagonalizing with lowered threshold

     Davidson diagonalization with overlap
     ethr =  5.54E-10,  avg # of iterations =  6.7

     negative rho (up, down):  2.929E-05 0.000E+00

     total cpu time spent up to now is      117.3 secs

     total energy              =    -413.80381598 Ry
     estimated scf accuracy    <       0.00000033 Ry

     iteration #  2     ecut=    80.00 Ry     beta= 0.70
     Davidson diagonalization with overlap
     ethr =  8.20E-10,  avg # of iterations =  2.1

     negative rho (up, down):  2.862E-05 0.000E+00

     total cpu time spent up to now is      121.5 secs

     total energy              =    -413.80381594 Ry
     estimated scf accuracy    <       0.00000019 Ry

     iteration #  3     ecut=    80.00 Ry     beta= 0.70
     Davidson diagonalization with overlap
     ethr =  4.82E-10,  avg # of iterations =  2.0

     negative rho (up, down):  2.877E-05 0.000E+00

     total cpu time spent up to now is      125.5 secs

     total energy              =    -413.80381598 Ry
     estimated scf accuracy    <       0.00000001 Ry

     iteration #  4     ecut=    80.00 Ry     beta= 0.70
     Davidson diagonalization with overlap
     ethr =  3.04E-11,  avg # of iterations =  2.7

     negative rho (up, down):  2.885E-05 0.000E+00

     total cpu time spent up to now is      129.8 secs

     total energy              =    -413.80381599 Ry
     estimated scf accuracy    <          1.3E-09 Ry

     iteration #  5     ecut=    80.00 Ry     beta= 0.70
     Davidson diagonalization with overlap
     ethr =  3.24E-12,  avg # of iterations =  2.8

     negative rho (up, down):  2.888E-05 0.000E+00

     total cpu time spent up to now is      134.1 secs

     total energy              =    -413.80381599 Ry
     estimated scf accuracy    <          2.0E-10 Ry

     iteration #  6     ecut=    80.00 Ry     beta= 0.70
     Davidson diagonalization with overlap
     ethr =  4.89E-13,  avg # of iterations =  3.4

     negative rho (up, down):  2.888E-05 0.000E+00

     total cpu time spent up to now is      138.5 secs

     total energy              =    -413.80381599 Ry
     estimated scf accuracy    <          4.5E-10 Ry

     iteration #  7     ecut=    80.00 Ry     beta= 0.70
     Davidson diagonalization with overlap
     ethr =  4.89E-13,  avg # of iterations =  2.4

     negative rho (up, down):  2.889E-05 0.000E+00

     total cpu time spent up to now is      142.5 secs

     End of self-consistent calculation

          k = 0.0000 0.0000 0.0000 ( 31059 PWs)   bands (ev):

   -22.2507 -22.2437 -22.2430 -22.2364 -22.2335 -22.2096 -22.2072 -22.2039
   -22.1955 -22.1911 -14.2162 -13.2100  -7.2390  -6.2343  -4.3607  -4.0245
    -3.8941  -2.7745  -2.7168  -1.5490   0.5925   2.3504   2.8070   2.9394

          k = 0.0000 0.0691 0.0000 ( 31101 PWs)   bands (ev):

   -22.2502 -22.2434 -22.2432 -22.2371 -22.2328 -22.2097 -22.2072 -22.2036
   -22.1958 -22.1911 -14.1967 -13.2062  -7.2982  -6.3075  -4.3585  -4.0050
    -3.8412  -2.7851  -2.6026  -1.5629   0.6065   2.4280   2.7293   2.8152

          k = 0.0000 0.1381 0.0000 ( 31049 PWs)   bands (ev):

   -22.2488 -22.2441 -22.2423 -22.2386 -22.2313 -22.2100 -22.2072 -22.2029
   -22.1965 -22.1912 -14.1394 -13.1970  -7.4566  -6.5126  -4.3312  -3.9331
    -3.7048  -2.7452  -2.3642  -1.6093   0.6534   2.2222   2.5111   2.5805

          k = 0.0000 0.2072 0.0000 ( 31043 PWs)   bands (ev):

   -22.2469 -22.2453 -22.2408 -22.2403 -22.2293 -22.2106 -22.2071 -22.2018
   -22.1977 -22.1914 -14.0475 -13.1889  -7.6676  -6.8094  -4.2508  -3.8017
    -3.5153  -2.6669  -2.0547  -1.6940   0.7452   1.5782   2.0512   2.5374

          k = 0.0000 0.2762 0.0000 ( 31031 PWs)   bands (ev):

   -22.2466 -22.2455 -22.2412 -22.2392 -22.2269 -22.2116 -22.2069 -22.2004
   -22.1991 -22.1918 -13.9268 -13.1919  -7.8780  -7.1465  -4.1110  -3.6179
    -3.3016  -2.5794  -1.8053  -1.7089   0.8935   0.9362   1.5746   2.1651

          k = 0.0000 0.3453 0.0000 ( 30967 PWs)   bands (ev):

   -22.2477 -22.2461 -22.2403 -22.2379 -22.2243 -22.2128 -22.2064 -22.2006
   -22.1988 -22.1923 -13.7860 -13.2174  -8.0411  -7.4775  -3.9204  -3.3996
    -3.1126  -2.5205  -1.8878  -1.3668   0.3661   1.0964   1.1889   1.6483

          k = 0.0000 0.4144 0.0000 ( 30937 PWs)   bands (ev):

   -22.2485 -22.2473 -22.2387 -22.2371 -22.2215 -22.2145 -22.2056 -22.2021
   -22.1971 -22.1931 -13.6367 -13.2751  -8.1226  -7.7652  -3.6947  -3.2103
    -3.0014  -2.5339  -1.8328  -1.1488   0.0090   0.9721   1.0327   1.4171

          k = 0.0000 0.4834 0.0000 ( 30948 PWs)   bands (ev):

   -22.2487 -22.2483 -22.2375 -22.2370 -22.2189 -22.2166 -22.2046 -22.2035
   -22.1955 -22.1942 -13.4927 -13.3684  -8.1035  -7.9808  -3.4577  -3.2549
    -2.8317  -2.6445  -1.5937  -1.2807   0.1099   0.5258   0.9664   1.1637

          k = 0.0667 0.0000 0.0000 ( 31082 PWs)   bands (ev):

   -22.2505 -22.2436 -22.2431 -22.2367 -22.2329 -22.2096 -22.2070 -22.2038
   -22.1956 -22.1913 -14.1988 -13.2094  -7.3043  -6.3154  -4.3565  -3.9529
    -3.8648  -2.6978  -2.6681  -1.5695   0.6061   2.3931   2.6395   2.9310

          k = 0.0667 0.0691 0.0000 ( 31054 PWs)   bands (ev):

   -22.2500 -22.2435 -22.2431 -22.2374 -22.2323 -22.2097 -22.2070 -22.2035
   -22.1959 -22.1913 -14.1795 -13.2055  -7.3537  -6.3799  -4.3487  -4.0704
    -3.6850  -2.8360  -2.4438  -1.5806   0.6216   2.3686   2.4602   2.9075

          k = 0.0667 0.1381 0.0000 ( 31067 PWs)   bands (ev):

   -22.2486 -22.2443 -22.2421 -22.2389 -22.2308 -22.2101 -22.2071 -22.2028
   -22.1967 -22.1914 -14.1225 -13.1960  -7.4894  -6.5637  -4.3135  -4.1364
    -3.4375  -2.8880  -2.1566  -1.6173   0.6720   1.8147   2.5430   2.7849

          k = 0.0667 0.2072 0.0000 ( 31040 PWs)   bands (ev):

   -22.2468 -22.2455 -22.2406 -22.2405 -22.2288 -22.2107 -22.2071 -22.2016
   -22.1979 -22.1915 -14.0312 -13.1873  -7.6767  -6.8363  -4.2311  -4.1056
    -3.1863  -2.8547  -1.8644  -1.6817   0.7664   1.2265   2.2631   2.4017

          k = 0.0667 0.2762 0.0000 ( 31019 PWs)   bands (ev):

   -22.2469 -22.2457 -22.2413 -22.2390 -22.2265 -22.2116 -22.2069 -22.2002
   -22.1993 -22.1918 -13.9115 -13.1894  -7.8691  -7.1533  -4.0941  -3.9832
    -2.9696  -2.7722  -1.7533  -1.6150   0.7238   0.9087   1.7270   1.9253

          k = 0.0667 0.3453 0.0000 ( 31000 PWs)   bands (ev):

   -22.2481 -22.2465 -22.2401 -22.2377 -22.2239 -22.2129 -22.2064 -22.2007
   -22.1986 -22.1923 -13.7721 -13.2135  -8.0211  -7.4699  -3.9087  -3.7872
    -2.8529  -2.6975  -1.7677  -1.4597   0.3938   0.9981   1.2981   1.4926

          k = 0.0667 0.4144 0.0000 ( 30963 PWs)   bands (ev):

   -22.2489 -22.2478 -22.2385 -22.2368 -22.2213 -22.2145 -22.2057 -22.2022
   -22.1969 -22.1930 -13.6245 -13.2694  -8.0974  -7.7479  -3.6911  -3.5518
    -2.8851  -2.7080  -1.6676  -1.4079   0.2460   0.6363   1.2446   1.4619

          k = 0.0667 0.4834 0.0000 ( 30945 PWs)   bands (ev):

   -22.2492 -22.2488 -22.2373 -22.2367 -22.2188 -22.2165 -22.2047 -22.2035
   -22.1954 -22.1941 -13.4825 -13.3605  -8.0775  -7.9575  -3.4754  -3.3818
    -2.9537  -2.8383  -1.5150  -1.4207   0.2058   0.3227   1.3012   1.6033

          k = 0.1333 0.0000 0.0000 ( 31060 PWs)   bands (ev):

   -22.2499 -22.2435 -22.2433 -22.2376 -22.2314 -22.2098 -22.2064 -22.2036
   -22.1958 -22.1919 -14.1477 -13.2092  -7.4736  -6.5359  -4.3237  -3.7779
    -3.7613  -2.6441  -2.3902  -1.6326   0.6524   2.1686   2.4692   2.6431

          k = 0.1333 0.0691 0.0000 ( 31063 PWs)   bands (ev):

   -22.2494 -22.2439 -22.2428 -22.2382 -22.2307 -22.2099 -22.2066 -22.2032
   -22.1962 -22.1918 -14.1287 -13.2050  -7.5012  -6.5798  -4.3077  -4.0892
    -3.4138  -2.8458  -2.1445  -1.6336   0.6716   1.8187   2.4748   2.8363

          k = 0.1333 0.1381 0.0000 ( 31091 PWs)   bands (ev):

   -22.2481 -22.2448 -22.2417 -22.2397 -22.2293 -22.2102 -22.2069 -22.2023
   -22.1970 -22.1918 -14.0728 -13.1946  -7.5820  -6.7103  -4.3232  -4.2587
    -3.0745  -3.0435  -1.8339  -1.6352   0.7297   1.2900   2.2603   2.9518

          k = 0.1333 0.2072 0.0000 ( 31068 PWs)   bands (ev):

   -22.2466 -22.2462 -22.2412 -22.2402 -22.2274 -22.2108 -22.2071 -22.2011
   -22.1982 -22.1918 -13.9834 -13.1842  -7.7056  -6.9180  -4.4375  -4.1733
    -3.1283  -2.8072  -1.6375  -1.6254   0.8229   0.8650   1.7373   2.7974

          k = 0.1333 0.2762 0.0000 ( 31042 PWs)   bands (ev):

   -22.2477 -22.2464 -22.2411 -22.2385 -22.2252 -22.2117 -22.2070 -22.1997
   -22.1996 -22.1919 -13.8667 -13.1834  -7.8455  -7.1770  -4.4220  -4.0465
    -3.1129  -2.6736  -1.6513  -1.5781   0.6861   0.8726   1.2846   2.4339

          k = 0.1333 0.3453 0.0000 ( 31050 PWs)   bands (ev):

   -22.2491 -22.2477 -22.2395 -22.2371 -22.2229 -22.2130 -22.2066 -22.2010
   -22.1981 -22.1923 -13.7313 -13.2033  -7.9636  -7.4499  -4.2888  -3.8793
    -3.0615  -2.7025  -1.8260  -1.5042   0.6017   0.7434   1.3235   2.0329

          k = 0.1333 0.4144 0.0000 ( 31005 PWs)   bands (ev):

   -22.2500 -22.2492 -22.2378 -22.2362 -22.2206 -22.2145 -22.2058 -22.2024
   -22.1965 -22.1929 -13.5890 -13.2536  -8.0233  -7.6980  -4.0638  -3.6923
    -3.0899  -2.8519  -1.9378  -1.5037   0.3978   0.8169   1.5726   1.7920

          k = 0.1333 0.4834 0.0000 ( 30957 PWs)   bands (ev):

   -22.2504 -22.2501 -22.2365 -22.2360 -22.2184 -22.2163 -22.2048 -22.2037
   -22.1951 -22.1938 -13.4533 -13.3381  -8.0007  -7.8891  -3.7907  -3.5977
    -3.1768  -3.0507  -1.8441  -1.6460   0.4507   0.6663   1.8684   1.9024

          k = 0.2000 0.0000 0.0000 ( 31064 PWs)   bands (ev):

   -22.2490 -22.2441 -22.2428 -22.2389 -22.2289 -22.2101 -22.2056 -22.2032
   -22.1963 -22.1928 -14.0656 -13.2147  -7.6894  -6.8418  -4.2385  -3.6370
    -3.5005  -2.5667  -2.0151  -1.7360   0.7449   1.5827   2.1618   2.4196

          k = 0.2000 0.0691 0.0000 ( 31090 PWs)   bands (ev):

   -22.2486 -22.2445 -22.2424 -22.2395 -22.2284 -22.2102 -22.2060 -22.2027
   -22.1967 -22.1927 -14.0472 -13.2100  -7.6949  -6.8634  -4.2190  -4.0180
    -3.1220  -2.7933  -1.8047  -1.7138   0.7673   1.2568   2.2269   2.4668

          k = 0.2000 0.1381 0.0000 ( 31076 PWs)   bands (ev):

   -22.2474 -22.2456 -22.2412 -22.2409 -22.2270 -22.2105 -22.2065 -22.2017
   -22.1976 -22.1924 -13.9932 -13.1978  -7.7148  -6.9319  -4.3947  -4.1636
    -3.1088  -2.7716  -1.6338  -1.5883   0.8265   0.8871   1.7436   2.8284

          k = 0.2000 0.2072 0.0000 ( 31065 PWs)   bands (ev):

   -22.2472 -22.2467 -22.2417 -22.2396 -22.2253 -22.2111 -22.2069 -22.2003
   -22.1989 -22.1922 -13.9073 -13.1842  -7.7555  -7.0536  -4.6562  -4.0808
    -3.3244  -2.5907  -1.6536  -1.4881   0.8119   0.8442   1.3026   2.9748

          k = 0.2000 0.2762 0.0000 ( 31049 PWs)   bands (ev):

   -22.2489 -22.2477 -22.2406 -22.2378 -22.2234 -22.2120 -22.2069 -22.2002
   -22.1989 -22.1921 -13.7956 -13.1783  -7.8155  -7.2252  -4.7695  -3.9781
    -3.4101  -2.5853  -1.9737  -1.3672   0.6164   1.0274   1.2941   2.7728

          k = 0.2000 0.3453 0.0000 ( 31059 PWs)   bands (ev):

   -22.2505 -22.2495 -22.2386 -22.2363 -22.2214 -22.2132 -22.2066 -22.2014
   -22.1974 -22.1923 -13.6672 -13.1910  -7.8758  -7.4258  -4.7298  -3.8538
    -3.4277  -2.7023  -2.3229  -1.4305   0.5038   1.3497   1.5009   2.4542

          k = 0.2000 0.4144 0.0000 ( 31019 PWs)   bands (ev):

   -22.2517 -22.2511 -22.2368 -22.2353 -22.2196 -22.2146 -22.2059 -22.2027
   -22.1959 -22.1928 -13.5339 -13.2317  -7.9054  -7.6218  -4.5563  -3.7602
    -3.4826  -2.8960  -2.4588  -1.6943   0.6551   1.5258   1.7725   2.2553

          k = 0.2000 0.4834 0.0000 ( 31014 PWs)   bands (ev):

   -22.2523 -22.2521 -22.2355 -22.2350 -22.2178 -22.2162 -22.2049 -22.2038
   -22.1946 -22.1936 -13.4089 -13.3052  -7.8772  -7.7801  -4.2828  -3.9631
    -3.3605  -3.1295  -2.3160  -2.0263   0.9591   1.3069   2.0660   2.2778

          k = 0.2667 0.0000 0.0000 ( 31084 PWs)   bands (ev):

   -22.2479 -22.2447 -22.2425 -22.2404 -22.2259 -22.2106 -22.2046 -22.2026
   -22.1969 -22.1940 -13.9575 -13.2336  -7.8953  -7.1773  -4.0976  -3.4486
    -3.2298  -2.4864  -1.8536  -1.5993   0.8954   0.9809   1.7037   2.1274

          k = 0.2667 0.0691 0.0000 ( 31105 PWs)   bands (ev):

   -22.2475 -22.2452 -22.2420 -22.2409 -22.2255 -22.2107 -22.2051 -22.2020
   -22.1974 -22.1937 -13.9400 -13.2280  -7.8843  -7.1806  -4.0787  -3.8687
    -2.8793  -2.7124  -1.7793  -1.4866   0.7753   0.9162   1.7457   2.0246

          k = 0.2667 0.1381 0.0000 ( 31076 PWs)   bands (ev):

   -22.2468 -22.2465 -22.2419 -22.2407 -22.2243 -22.2110 -22.2059 -22.2008
   -22.1984 -22.1932 -13.8889 -13.2130  -7.8552  -7.1950  -4.3492  -4.0262
    -3.1021  -2.6306  -1.5574  -1.5297   0.7334   0.9063   1.2906   2.4899

          k = 0.2667 0.2072 0.0000 ( 31066 PWs)   bands (ev):

   -22.2483 -22.2474 -22.2415 -22.2390 -22.2228 -22.2116 -22.2065 -22.1996
   -22.1994 -22.1927 -13.8079 -13.1944  -7.8189  -7.2323  -4.7376  -3.9566
    -3.4299  -2.5758  -1.9028  -1.3384   0.6463   1.0648   1.2940   2.7837

          k = 0.2667 0.2762 0.0000 ( 31075 PWs)   bands (ev):

   -22.2503 -22.2493 -22.2397 -22.2371 -22.2213 -22.2124 -22.2067 -22.2008
   -22.1980 -22.1925 -13.7037 -13.1809  -7.7890  -7.3038  -4.9844  -3.9069
    -3.6178  -2.6434  -2.3819  -1.3797   0.5787   1.5020   1.5574   2.7778

          k = 0.2667 0.3453 0.0000 ( 31071 PWs)   bands (ev):

   -22.2522 -22.2515 -22.2375 -22.2355 -22.2198 -22.2135 -22.2064 -22.2019
   -22.1966 -22.1924 -13.5855 -13.1829  -7.7713  -7.4091  -5.0615  -3.8766
    -3.7391  -2.8002  -2.7357  -1.6756   0.7961   1.7807   2.0437   2.5933

          k = 0.2667 0.4144 0.0000 ( 31034 PWs)   bands (ev):

   -22.2536 -22.2532 -22.2356 -22.2344 -22.2185 -22.2147 -22.2058 -22.2029
   -22.1953 -22.1927 -13.4651 -13.2100  -7.7543  -7.5301  -4.9697  -4.0321
    -3.7554  -3.0296  -2.7898  -2.0358   1.1296   2.0970   2.1716   2.5737

          k = 0.2667 0.4834 0.0000 ( 31052 PWs)   bands (ev):

   -22.2544 -22.2542 -22.2344 -22.2340 -22.2173 -22.2160 -22.2049 -22.2039
   -22.1941 -22.1933 -13.3553 -13.2678  -7.7153  -7.6393  -4.7355  -4.4006
    -3.5594  -3.2997  -2.6264  -2.3624   1.4936   1.8570   2.4100   2.6333

          k = 0.3333 0.0000 0.0000 ( 31118 PWs)   bands (ev):

   -22.2466 -22.2452 -22.2424 -22.2420 -22.2227 -22.2115 -22.2035 -22.2018
   -22.1978 -22.1953 -13.8305 -13.2742  -8.0484  -7.4988  -3.9089  -3.2238
    -3.0386  -2.4354  -1.9032  -1.1933   0.4323   1.1077   1.3463   1.6735

          k = 0.3333 0.0691 0.0000 ( 31122 PWs)   bands (ev):

   -22.2464 -22.2458 -22.2423 -22.2419 -22.2224 -22.2116 -22.2041 -22.2010
   -22.1983 -22.1949 -13.8143 -13.2673  -8.0273  -7.4888  -3.8930  -3.6604
    -2.7872  -2.6531  -1.7359  -1.2557   0.4505   1.0715   1.2900   1.6335

          k = 0.3333 0.1381 0.0000 ( 31100 PWs)   bands (ev):

   -22.2472 -22.2466 -22.2424 -22.2405 -22.2215 -22.2118 -22.2051 -22.1997
   -22.1994 -22.1941 -13.7671 -13.2483  -7.9666  -7.4626  -4.2029  -3.8502
    -3.0850  -2.6833  -1.6273  -1.4205   0.6823   0.8162   1.3099   2.1200

          k = 0.3333 0.2072 0.0000 ( 31065 PWs)   bands (ev):

   -22.2493 -22.2485 -22.2409 -22.2386 -22.2204 -22.2123 -22.2058 -22.2005
   -22.1984 -22.1934 -13.6929 -13.2226  -7.8751  -7.4306  -4.6841  -3.8048
    -3.5028  -2.6959  -2.1747  -1.3630   0.5705   1.4378   1.5053   2.4667

          k = 0.3333 0.2762 0.0000 ( 31072 PWs)   bands (ev):

   -22.2516 -22.2509 -22.2387 -22.2366 -22.2193 -22.2130 -22.2061 -22.2016
   -22.1970 -22.1929 -13.5986 -13.1986  -7.7686  -7.4085  -5.0470  -3.8855
    -3.7473  -2.7926  -2.6680  -1.6497   0.8333   1.7968   2.1139   2.5852

          k = 0.3333 0.3453 0.0000 ( 31048 PWs)   bands (ev):

   -22.2538 -22.2533 -22.2364 -22.2348 -22.2183 -22.2139 -22.2060 -22.2024
   -22.1957 -22.1927 -13.4939 -13.1864  -7.6682  -7.4101  -5.2490  -4.0948
    -3.9091  -2.9885  -2.9060  -2.0108   1.1998   2.1655   2.5290   2.7517

          k = 0.3333 0.4144 0.0000 ( 31070 PWs)   bands (ev):

   -22.2554 -22.2552 -22.2346 -22.2336 -22.2175 -22.2149 -22.2054 -22.2031
   -22.1946 -22.1927 -13.3904 -13.1959  -7.5899  -7.4382  -5.2652  -4.4184
    -3.9757  -3.2774  -2.8741  -2.3049   1.5493   2.3806   2.5589   3.1603

          k = 0.3333 0.4834 0.0000 ( 31051 PWs)   bands (ev):

   -22.2563 -22.2562 -22.2335 -22.2331 -22.2168 -22.2159 -22.2046 -22.2038
   -22.1937 -22.1930 -13.3002 -13.2335  -7.5321  -7.4825  -5.1027  -4.7997
    -3.8440  -3.5898  -2.7269  -2.5346   1.8666   2.1487   2.9119   3.1566

          k = 0.4000 0.0000 0.0000 ( 31106 PWs)   bands (ev):

   -22.2453 -22.2453 -22.2434 -22.2426 -22.2196 -22.2128 -22.2023 -22.2007
   -22.1987 -22.1967 -13.6942 -13.3425  -8.1207  -7.7741  -3.6844  -3.0383
    -2.9807  -2.4516  -1.7640  -0.9326   0.0856   1.1499   1.1539   1.3903

          k = 0.4000 0.0691 0.0000 ( 31104 PWs)   bands (ev):

   -22.2460 -22.2456 -22.2432 -22.2420 -22.2194 -22.2128 -22.2030 -22.1999
   -22.1994 -22.1961 -13.6796 -13.3338  -8.0947  -7.7552  -3.6738  -3.4256
    -2.8722  -2.6761  -1.5497  -1.1561   0.3055   0.7502   1.4170   1.4300

          k = 0.4000 0.1381 0.0000 ( 31081 PWs)   bands (ev):

   -22.2477 -22.2471 -22.2421 -22.2405 -22.2188 -22.2129 -22.2041 -22.2005
   -22.1986 -22.1951 -13.6373 -13.3096  -8.0182  -7.7009  -3.9806  -3.6517
    -3.1435  -2.8564  -1.6928  -1.3593   0.4993   0.9093   1.5547   1.8992

          k = 0.4000 0.2072 0.0000 ( 31074 PWs)   bands (ev):

   -22.2500 -22.2495 -22.2401 -22.2385 -22.2181 -22.2132 -22.2049 -22.2016
   -22.1973 -22.1943 -13.5716 -13.2749  -7.8975  -7.6190  -4.5157  -3.7293
    -3.5475  -2.8899  -2.2750  -1.5956   0.7548   1.6593   1.7836   2.2613

          k = 0.4000 0.2762 0.0000 ( 31074 PWs)   bands (ev):

   -22.2526 -22.2522 -22.2378 -22.2364 -22.2174 -22.2137 -22.2053 -22.2024
   -22.1961 -22.1935 -13.4898 -13.2378  -7.7447  -7.5230  -4.9608  -4.1223
    -3.6633  -3.0033  -2.7127  -1.9962   1.1912   2.1453   2.2448   2.6448

          k = 0.4000 0.3453 0.0000 ( 31081 PWs)   bands (ev):

   -22.2550 -22.2547 -22.2355 -22.2345 -22.2170 -22.2145 -22.2052 -22.2029
   -22.1949 -22.1931 -13.4017 -13.2083  -7.5824  -7.4316  -5.2709  -4.4858
    -3.8901  -3.2499  -2.8643  -2.3005   1.5674   2.3849   2.6077   3.3216

          k = 0.4000 0.4144 0.0000 ( 31081 PWs)   bands (ev):

   -22.2568 -22.2567 -22.2338 -22.2331 -22.2167 -22.2152 -22.2048 -22.2034
   -22.1940 -22.1928 -13.3187 -13.1965  -7.4438  -7.3645  -5.4073  -4.8188
    -4.0850  -3.5869  -2.8247  -2.4785   1.8675   2.3791   3.0515   3.6388

          k = 0.4000 0.4834 0.0000 ( 31038 PWs)   bands (ev):

   -22.2578 -22.2578 -22.2327 -22.2325 -22.2164 -22.2159 -22.2043 -22.2038
   -22.1933 -22.1929 -13.2520 -13.2102  -7.3595  -7.3366  -5.3512  -5.1309
    -4.0825  -3.8945  -2.7232  -2.6065   2.1070   2.2815   3.3909   3.5991

          k = 0.4667 0.0000 0.0000 ( 31068 PWs)   bands (ev):

   -22.2451 -22.2445 -22.2442 -22.2432 -22.2168 -22.2146 -22.2010 -22.1998
   -22.1995 -22.1981 -13.5599 -13.4394  -8.0982  -7.9796  -3.4407  -3.2060
    -2.7467  -2.5587  -1.4502  -1.0891   0.2251   0.6548   1.1488   1.3372

          k = 0.4667 0.0691 0.0000 ( 31091 PWs)   bands (ev):

   -22.2460 -22.2457 -22.2431 -22.2425 -22.2167 -22.2145 -22.2018 -22.2006
   -22.1987 -22.1974 -13.5472 -13.4288  -8.0713  -7.9551  -3.4439  -3.2897
    -2.9517  -2.8077  -1.3270  -1.1806   0.2911   0.4341   1.4713   1.6738

          k = 0.4667 0.1381 0.0000 ( 31102 PWs)   bands (ev):

   -22.2479 -22.2476 -22.2415 -22.2409 -22.2164 -22.2144 -22.2029 -22.2017
   -22.1974 -22.1963 -13.5107 -13.3985  -7.9919  -7.8834  -3.7197  -3.5328
    -3.2307  -3.0742  -1.6130  -1.4539   0.5636   0.7756   1.8371   1.9599

          k = 0.4667 0.2072 0.0000 ( 31101 PWs)   bands (ev):

   -22.2504 -22.2502 -22.2393 -22.2388 -22.2161 -22.2145 -22.2038 -22.2027
   -22.1962 -22.1952 -13.4550 -13.3535  -7.8651  -7.7700  -4.2627  -3.9696
    -3.3540  -3.1193  -2.1560  -1.8986   1.0776   1.4341   2.0787   2.2847

          k = 0.4667 0.2762 0.0000 ( 31068 PWs)   bands (ev):

   -22.2531 -22.2529 -22.2370 -22.2366 -22.2159 -22.2147 -22.2043 -22.2033
   -22.1951 -22.1943 -13.3876 -13.3015  -7.7007  -7.6257  -4.7496  -4.4508
    -3.4782  -3.2450  -2.5678  -2.3156   1.5607   1.9192   2.4954   2.7495

          k = 0.4667 0.3453 0.0000 ( 31065 PWs)   bands (ev):

   -22.2556 -22.2555 -22.2349 -22.2345 -22.2160 -22.2151 -22.2044 -22.2036
   -22.1942 -22.1936 -13.3185 -13.2524  -7.5181  -7.4690  -5.1297  -4.8532
    -3.7561  -3.5274  -2.7231  -2.5328   1.8859   2.1613   3.0151   3.3093

          k = 0.4667 0.4144 0.0000 ( 31086 PWs)   bands (ev):

   -22.2576 -22.2575 -22.2333 -22.2330 -22.2161 -22.2156 -22.2042 -22.2037
   -22.1935 -22.1931 -13.2587 -13.2170  -7.3516  -7.3289  -5.3695  -5.1582
    -4.0429  -3.8639  -2.7260  -2.6097   2.1111   2.2843   3.4334   3.6547

          k = 0.4667 0.4834 0.0000 ( 31072 PWs)   bands (ev):

   -22.2586 -22.2586 -22.2323 -22.2323 -22.2161 -22.2159 -22.2040 -22.2038
   -22.1930 -22.1929 -13.2184 -13.2041  -7.2485  -7.2434  -5.4450  -5.3625
    -4.1797  -4.1101  -2.6885  -2.6491   2.2572   2.3163   3.6822   3.7827

     the Fermi energy is    -0.8584 ev

!    total energy              =    -413.80381599 Ry
     estimated scf accuracy    <          2.6E-12 Ry
     smearing contrib. (-TS)   =       0.00007596 Ry
     internal energy E=F+TS    =    -413.80389194 Ry

     The total energy is F=E-TS. E is the sum of the following terms:
     one-electron contribution =   -1176.98411749 Ry
[...]

   -22.2443 -22.2379 -22.2369 -22.2320 -22.2273 -22.2051 -22.2008 -22.1974
   -22.1898 -22.1854 -14.1973 -13.2209  -7.3618  -6.3663  -4.3672  -4.0728
    -3.6951  -2.8430  -2.4487  -1.5698   0.6156   2.3502   2.3855   2.8989

          k = 0.0667 0.1381 0.0000 ( 31067 PWs)   bands (ev):

   -22.2430 -22.2388 -22.2358 -22.2334 -22.2258 -22.2055 -22.2009 -22.1966
   -22.1906 -22.1854 -14.1399 -13.2109  -7.4994  -6.5542  -4.3318  -4.1407
    -3.4471  -2.8926  -2.1648  -1.6065   0.6660   1.8195   2.4874   2.7715

          k = 0.0667 0.2072 0.0000 ( 31040 PWs)   bands (ev):

   -22.2413 -22.2400 -22.2349 -22.2343 -22.2239 -22.2061 -22.2009 -22.1955
   -22.1919 -22.1855 -14.0480 -13.2016  -7.6891  -6.8324  -4.2486  -4.1112
    -3.1971  -2.8597  -1.8757  -1.6714   0.7604   1.2448   2.2597   2.4049

          k = 0.0667 0.2762 0.0000 ( 31019 PWs)   bands (ev):

   -22.2415 -22.2406 -22.2351 -22.2327 -22.2217 -22.2070 -22.2008 -22.1940
   -22.1933 -22.1857 -13.9275 -13.2029  -7.8838  -7.1551  -4.1105  -3.9908
    -2.9821  -2.7804  -1.7446  -1.6295   0.7519   0.9030   1.7479   1.9426

          k = 0.0667 0.3453 0.0000 ( 31000 PWs)   bands (ev):

   -22.2427 -22.2415 -22.2338 -22.2313 -22.2192 -22.2083 -22.2003 -22.1948
   -22.1924 -22.1862 -13.7872 -13.2264  -8.0374  -7.4767  -3.9240  -3.7978
    -2.8652  -2.7110  -1.7637  -1.4747   0.4266   1.0045   1.3177   1.5218

          k = 0.0667 0.4144 0.0000 ( 30963 PWs)   bands (ev):

   -22.2436 -22.2428 -22.2321 -22.2305 -22.2167 -22.2100 -22.1996 -22.1962
   -22.1907 -22.1869 -13.6386 -13.2820  -8.1142  -7.7589  -3.7059  -3.5668
    -2.8945  -2.7257  -1.6712  -1.4199   0.2779   0.6676   1.2831   1.4642

          k = 0.0667 0.4834 0.0000 ( 30945 PWs)   bands (ev):

   -22.2440 -22.2437 -22.2309 -22.2303 -22.2142 -22.2120 -22.1987 -22.1975
   -22.1892 -22.1879 -13.4959 -13.3732  -8.0936  -7.9717  -3.4914  -3.4009
    -2.9621  -2.8538  -1.5248  -1.4320   0.2399   0.3588   1.3405   1.6356

          k = 0.1333 0.0000 0.0000 ( 31060 PWs)   bands (ev):

   -22.2443 -22.2379 -22.2370 -22.2321 -22.2264 -22.2051 -22.2003 -22.1975
   -22.1898 -22.1860 -14.1658 -13.2252  -7.4778  -6.5220  -4.3374  -3.8044
    -3.7513  -2.6736  -2.3788  -1.6239   0.6488   2.1345   2.3923   2.6565

          k = 0.1333 0.0691 0.0000 ( 31063 PWs)   bands (ev):

   -22.2438 -22.2383 -22.2365 -22.2328 -22.2258 -22.2052 -22.2004 -22.1971
   -22.1901 -22.1859 -14.1466 -13.2209  -7.5063  -6.5670  -4.3221  -4.0976
    -3.4222  -2.8611  -2.1473  -1.6249   0.6679   1.8101   2.4045   2.8283

          k = 0.1333 0.1381 0.0000 ( 31091 PWs)   bands (ev):

   -22.2425 -22.2393 -22.2354 -22.2342 -22.2243 -22.2056 -22.2007 -22.1962
   -22.1910 -22.1858 -14.0903 -13.2100  -7.5895  -6.7010  -4.3302  -4.2748
    -3.0850  -3.0528  -1.8429  -1.6264   0.7257   1.3010   2.2354   2.9367

          k = 0.1333 0.2072 0.0000 ( 31068 PWs)   bands (ev):

   -22.2412 -22.2407 -22.2354 -22.2338 -22.2225 -22.2062 -22.2009 -22.1950
   -22.1922 -22.1858 -14.0004 -13.1988  -7.7164  -6.9138  -4.4434  -4.1909
    -3.1343  -2.8198  -1.6512  -1.6182   0.8185   0.8903   1.7495   2.7914

          k = 0.1333 0.2762 0.0000 ( 31042 PWs)   bands (ev):

   -22.2423 -22.2413 -22.2349 -22.2322 -22.2204 -22.2071 -22.2008 -22.1936
   -22.1935 -22.1859 -13.8828 -13.1972  -7.8596  -7.1786  -4.4273  -4.0645
    -3.1182  -2.6865  -1.6649  -1.5761   0.7184   0.8748   1.3059   2.4392

          k = 0.1333 0.3453 0.0000 ( 31050 PWs)   bands (ev):

   -22.2437 -22.2427 -22.2332 -22.2307 -22.2182 -22.2084 -22.2004 -22.1951
   -22.1919 -22.1862 -13.7465 -13.2165  -7.9800  -7.4570  -4.2945  -3.8968
    -3.0695  -2.7140  -1.8322  -1.5100   0.6292   0.7739   1.3294   2.0472

          k = 0.1333 0.4144 0.0000 ( 31005 PWs)   bands (ev):

   -22.2448 -22.2441 -22.2315 -22.2298 -22.2160 -22.2099 -22.1997 -22.1964
   -22.1903 -22.1868 -13.6032 -13.2664  -8.0408  -7.7097  -4.0712  -3.7093
    -3.1007  -2.8623  -1.9367  -1.5133   0.4319   0.8411   1.5760   1.8155

          k = 0.1333 0.4834 0.0000 ( 30957 PWs)   bands (ev):

   -22.2452 -22.2450 -22.2302 -22.2296 -22.2138 -22.2118 -22.1988 -22.1977
   -22.1889 -22.1877 -13.4668 -13.3510  -8.0178  -7.9042  -3.8016  -3.6137
    -3.1860  -3.0606  -1.8439  -1.6517   0.4810   0.6905   1.8730   1.9263

          k = 0.2000 0.0000 0.0000 ( 31064 PWs)   bands (ev):

   -22.2434 -22.2385 -22.2366 -22.2334 -22.2239 -22.2054 -22.1995 -22.1971
   -22.1903 -22.1869 -14.0839 -13.2314  -7.6899  -6.8289  -4.2480  -3.6649
    -3.4949  -2.5989  -2.0087  -1.7303   0.7446   1.5581   2.1804   2.3547

          k = 0.2000 0.0691 0.0000 ( 31090 PWs)   bands (ev):

   -22.2430 -22.2389 -22.2362 -22.2340 -22.2234 -22.2055 -22.1998 -22.1966
   -22.1907 -22.1867 -14.0654 -13.2265  -7.6963  -6.8514  -4.2294  -4.0310
    -3.1312  -2.8162  -1.8077  -1.7082   0.7669   1.2539   2.1888   2.4672

          k = 0.2000 0.1381 0.0000 ( 31076 PWs)   bands (ev):

   -22.2419 -22.2401 -22.2352 -22.2350 -22.2221 -22.2059 -22.2003 -22.1956
   -22.1916 -22.1864 -14.0110 -13.2138  -7.7189  -6.9226  -4.4049  -4.1766
    -3.1249  -2.7829  -1.6296  -1.5973   0.8257   0.9017   1.7419   2.8214

          k = 0.2000 0.2072 0.0000 ( 31065 PWs)   bands (ev):

   -22.2417 -22.2415 -22.2357 -22.2333 -22.2204 -22.2064 -22.2007 -22.1943
   -22.1929 -22.1862 -13.9244 -13.1994  -7.7638  -7.0490  -4.6636  -4.0979
    -3.3343  -2.6019  -1.6625  -1.4885   0.8362   0.8469   1.3170   2.9664

          k = 0.2000 0.2762 0.0000 ( 31049 PWs)   bands (ev):

   -22.2435 -22.2426 -22.2344 -22.2315 -22.2186 -22.2073 -22.2007 -22.1942
   -22.1928 -22.1861 -13.8119 -13.1927  -7.8284  -7.2267  -4.7741  -3.9990
    -3.4151  -2.5959  -1.9760  -1.3733   0.6365   1.0536   1.3022   2.7688

          k = 0.2000 0.3453 0.0000 ( 31059 PWs)   bands (ev):

   -22.2452 -22.2444 -22.2324 -22.2300 -22.2167 -22.2085 -22.2004 -22.1955
   -22.1913 -22.1863 -13.6826 -13.2046  -7.8925  -7.4334  -4.7324  -3.8753
    -3.4333  -2.7134  -2.3159  -1.4365   0.5284   1.3739   1.5070   2.4546

          k = 0.2000 0.4144 0.0000 ( 31019 PWs)   bands (ev):

   -22.2464 -22.2459 -22.2305 -22.2290 -22.2149 -22.2099 -22.1998 -22.1967
   -22.1898 -22.1867 -13.5483 -13.2448  -7.9242  -7.6347  -4.5584  -3.7759
    -3.4943  -2.9088  -2.4454  -1.6936   0.6747   1.5418   1.7789   2.2643

          k = 0.2000 0.4834 0.0000 ( 31014 PWs)   bands (ev):

   -22.2471 -22.2469 -22.2293 -22.2287 -22.2132 -22.2115 -22.1989 -22.1978
   -22.1885 -22.1874 -13.4225 -13.3183  -7.8959  -7.7969  -4.2860  -3.9695
    -3.3771  -3.1444  -2.3038  -2.0189   0.9730   1.3178   2.0734   2.2880

          k = 0.2667 0.0000 0.0000 ( 31084 PWs)   bands (ev):

   -22.2422 -22.2391 -22.2364 -22.2349 -22.2209 -22.2059 -22.1985 -22.1965
   -22.1909 -22.1880 -13.9761 -13.2512  -7.8923  -7.1650  -4.1043  -3.4786
    -3.2279  -2.5223  -1.8515  -1.5981   0.8986   0.9634   1.7280   2.0845

          k = 0.2667 0.0691 0.0000 ( 31105 PWs)   bands (ev):

   -22.2419 -22.2396 -22.2359 -22.2354 -22.2205 -22.2060 -22.1990 -22.1959
   -22.1914 -22.1878 -13.9585 -13.2453  -7.8822  -7.1690  -4.0860  -3.8858
    -2.8892  -2.7431  -1.7784  -1.4898   0.7745   0.9197   1.7331   2.0339

          k = 0.2667 0.1381 0.0000 ( 31076 PWs)   bands (ev):

   -22.2414 -22.2409 -22.2361 -22.2346 -22.2194 -22.2063 -22.1998 -22.1947
   -22.1924 -22.1872 -13.9069 -13.2298  -7.8558  -7.1858  -4.3629  -4.0359
    -3.1274  -2.6402  -1.5606  -1.5326   0.7444   0.9127   1.2940   2.4909

          k = 0.2667 0.2072 0.0000 ( 31066 PWs)   bands (ev):

   -22.2428 -22.2422 -22.2355 -22.2328 -22.2179 -22.2068 -22.2003 -22.1936
   -22.1934 -22.1868 -13.8253 -13.2104  -7.8239  -7.2273  -4.7478  -3.9722
    -3.4480  -2.5845  -1.8990  -1.3457   0.6625   1.0804   1.2992   2.7846

          k = 0.2667 0.2762 0.0000 ( 31075 PWs)   bands (ev):

   -22.2449 -22.2442 -22.2336 -22.2309 -22.2165 -22.2076 -22.2005 -22.1948
   -22.1919 -22.1865 -13.7202 -13.1959  -7.7999  -7.3049  -4.9900  -3.9321
    -3.6255  -2.6531  -2.3697  -1.3838   0.5953   1.5086   1.5756   2.7759

          k = 0.2667 0.3453 0.0000 ( 31071 PWs)   bands (ev):

   -22.2468 -22.2463 -22.2314 -22.2293 -22.2150 -22.2087 -22.2003 -22.1959
   -22.1905 -22.1864 -13.6010 -13.1970  -7.7880  -7.4173  -5.0625  -3.9030
    -3.7450  -2.8127  -2.7157  -1.6710   0.8054   1.7893   2.0621   2.5888

          k = 0.2667 0.4144 0.0000 ( 31034 PWs)   bands (ev):

   -22.2483 -22.2480 -22.2295 -22.2282 -22.2137 -22.2099 -22.1997 -22.1970
   -22.1892 -22.1866 -13.4797 -13.2235  -7.7749  -7.5448  -4.9674  -4.0336
    -3.7802  -3.0455  -2.7686  -2.0237   1.1318   2.1077   2.1693   2.5882

          k = 0.2667 0.4834 0.0000 ( 31052 PWs)   bands (ev):

   -22.2491 -22.2490 -22.2283 -22.2278 -22.2125 -22.2112 -22.1988 -22.1979
   -22.1880 -22.1871 -13.3691 -13.2812  -7.7368  -7.6587  -4.7321  -4.3985
    -3.5811  -3.3187  -2.6072  -2.3458   1.4906   1.8514   2.4230   2.6487

          k = 0.3333 0.0000 0.0000 ( 31118 PWs)   bands (ev):

   -22.2410 -22.2396 -22.2365 -22.2364 -22.2176 -22.2067 -22.1974 -22.1957
   -22.1917 -22.1893 -13.8495 -13.2925  -8.0425  -7.4868  -3.9136  -3.2566
    -3.0387  -2.4751  -1.9057  -1.1987   0.4218   1.1144   1.3761   1.6473

          k = 0.3333 0.0691 0.0000 ( 31122 PWs)   bands (ev):

   -22.2408 -22.2402 -22.2367 -22.2358 -22.2173 -22.2068 -22.1980 -22.1950
   -22.1923 -22.1889 -13.8331 -13.2854  -8.0221  -7.4775  -3.8980  -3.6810
    -2.7963  -2.6914  -1.7415  -1.2571   0.4462   1.0818   1.2840   1.6531

          k = 0.3333 0.1381 0.0000 ( 31100 PWs)   bands (ev):

   -22.2417 -22.2413 -22.2365 -22.2344 -22.2165 -22.2070 -22.1990 -22.1937
   -22.1934 -22.1882 -13.7854 -13.2659  -7.9639  -7.4534  -4.2205  -3.8569
    -3.1211  -2.6908  -1.6185  -1.4297   0.6958   0.8152   1.3116   2.1297

          k = 0.3333 0.2072 0.0000 ( 31065 PWs)   bands (ev):

   -22.2438 -22.2432 -22.2349 -22.2325 -22.2154 -22.2074 -22.1997 -22.1945
   -22.1924 -22.1875 -13.7105 -13.2393  -7.8768  -7.4254  -4.6980  -3.8179
    -3.5322  -2.7037  -2.1569  -1.3680   0.5837   1.4410   1.5089   2.4718

          k = 0.3333 0.2762 0.0000 ( 31072 PWs)   bands (ev):

   -22.2462 -22.2457 -22.2327 -22.2305 -22.2143 -22.2081 -22.2000 -22.1956
   -22.1910 -22.1870 -13.6153 -13.2142  -7.7769  -7.4094  -5.0553  -3.9220
    -3.7512  -2.8028  -2.6435  -1.6447   0.8387   1.8030   2.1220   2.5862

          k = 0.3333 0.3453 0.0000 ( 31048 PWs)   bands (ev):

   -22.2484 -22.2481 -22.2304 -22.2287 -22.2134 -22.2090 -22.1998 -22.1964
   -22.1897 -22.1867 -13.5096 -13.2011  -7.6842  -7.4189  -5.2500  -4.1186
    -3.9163  -3.0023  -2.8819  -1.9976   1.1969   2.1746   2.5209   2.7674

          k = 0.3333 0.4144 0.0000 ( 31070 PWs)   bands (ev):

   -22.2501 -22.2499 -22.2286 -22.2275 -22.2126 -22.2100 -22.1993 -22.1972
   -22.1885 -22.1866 -13.4051 -13.2098  -7.6126  -7.4552  -5.2592  -4.4159
    -3.9963  -3.2935  -2.8543  -2.2879   1.5394   2.3672   2.5701   3.1776

          k = 0.3333 0.4834 0.0000 ( 31051 PWs)   bands (ev):

   -22.2510 -22.2509 -22.2274 -22.2271 -22.2118 -22.2109 -22.1987 -22.1979
   -22.1876 -22.1869 -13.3142 -13.2472  -7.5575  -7.5057  -5.0926  -4.7900
    -3.8635  -3.6073  -2.7089  -2.5169   1.8520   2.1328   2.9248   3.1718

          k = 0.4000 0.0000 0.0000 ( 31106 PWs)   bands (ev):

   -22.2397 -22.2397 -22.2378 -22.2367 -22.2145 -22.2079 -22.1962 -22.1947
   -22.1927 -22.1907 -13.7135 -13.3615  -8.1125  -7.7626  -3.6877  -3.0389
    -3.0168  -2.4939  -1.7718  -0.9478   0.0845   1.1428   1.1836   1.3951

          k = 0.4000 0.0691 0.0000 ( 31104 PWs)   bands (ev):

   -22.2405 -22.2401 -22.2375 -22.2361 -22.2143 -22.2079 -22.1969 -22.1939
   -22.1934 -22.1901 -13.6987 -13.3526  -8.0871  -7.7443  -3.6772  -3.4475
    -2.8831  -2.7188  -1.5603  -1.1558   0.2956   0.7568   1.4332   1.4447

          k = 0.4000 0.1381 0.0000 ( 31081 PWs)   bands (ev):

   -22.2422 -22.2417 -22.2362 -22.2346 -22.2137 -22.2080 -22.1980 -22.1945
   -22.1926 -22.1892 -13.6559 -13.3278  -8.0130  -7.6920  -4.0021  -3.6559
    -3.1861  -2.8641  -1.6770  -1.3666   0.5089   0.8950   1.5573   1.9173

          k = 0.4000 0.2072 0.0000 ( 31074 PWs)   bands (ev):

   -22.2446 -22.2441 -22.2342 -22.2326 -22.2131 -22.2083 -22.1988 -22.1955
   -22.1913 -22.1883 -13.5894 -13.2922  -7.8964  -7.6139  -4.5339  -3.7537
    -3.5689  -2.8982  -2.2508  -1.5918   0.7588   1.6474   1.7859   2.2704

          k = 0.4000 0.2762 0.0000 ( 31074 PWs)   bands (ev):

   -22.2472 -22.2469 -22.2319 -22.2304 -22.2124 -22.2088 -22.1992 -22.1964
   -22.1901 -22.1876 -13.5067 -13.2540  -7.7502  -7.5240  -4.9730  -4.1528
    -3.6722  -3.0143  -2.6863  -1.9836   1.1893   2.1487   2.2397   2.6450

          k = 0.4000 0.3453 0.0000 ( 31081 PWs)   bands (ev):

   -22.2496 -22.2494 -22.2296 -22.2285 -22.2120 -22.2094 -22.1992 -22.1970
   -22.1889 -22.1870 -13.4175 -13.2235  -7.5971  -7.4413  -5.2737  -4.5022
    -3.8979  -3.2629  -2.8432  -2.2836   1.5588   2.3762   2.6125   3.3216

          k = 0.4000 0.4144 0.0000 ( 31081 PWs)   bands (ev):

   -22.2515 -22.2514 -22.2279 -22.2272 -22.2116 -22.2101 -22.1988 -22.1975
   -22.1879 -22.1868 -13.3336 -13.2109  -7.4683  -7.3843  -5.3987  -4.8143
    -4.0990  -3.6001  -2.8077  -2.4617   1.8517   2.3625   3.0567   3.6456

          k = 0.4000 0.4834 0.0000 ( 31038 PWs)   bands (ev):

   -22.2526 -22.2525 -22.2268 -22.2266 -22.2112 -22.2107 -22.1984 -22.1979
   -22.1872 -22.1868 -13.2662 -13.2242  -7.3897  -7.3646  -5.3344  -5.1141
    -4.0990  -3.9092  -2.7074  -2.5905   2.0857   2.2596   3.3976   3.6088

          k = 0.4667 0.0000 0.0000 ( 31068 PWs)   bands (ev):

   -22.2395 -22.2389 -22.2384 -22.2374 -22.2118 -22.2096 -22.1950 -22.1938
   -22.1935 -22.1921 -13.5793 -13.4587  -8.0883  -7.9686  -3.4429  -3.2073
    -2.7863  -2.6009  -1.4627  -1.1060   0.2249   0.6489   1.1834   1.3701

          k = 0.4667 0.0691 0.0000 ( 31091 PWs)   bands (ev):

   -22.2404 -22.2401 -22.2373 -22.2366 -22.2117 -22.2095 -22.1957 -22.1945
   -22.1927 -22.1914 -13.5665 -13.4479  -8.0621  -7.9448  -3.4463  -3.2991
    -2.9805  -2.8490  -1.3374  -1.1850   0.2860   0.4377   1.4964   1.6787

          k = 0.4667 0.1381 0.0000 ( 31102 PWs)   bands (ev):

   -22.2424 -22.2421 -22.2356 -22.2350 -22.2114 -22.2095 -22.1968 -22.1956
   -22.1915 -22.1903 -13.5294 -13.4171  -7.9849  -7.8752  -3.7439  -3.5460
    -3.2599  -3.0854  -1.6010  -1.4517   0.5628   0.7639   1.8384   1.9670

          k = 0.4667 0.2072 0.0000 ( 31101 PWs)   bands (ev):

   -22.2449 -22.2447 -22.2335 -22.2329 -22.2111 -22.2095 -22.1977 -22.1966
   -22.1903 -22.1892 -13.4729 -13.3712  -7.8619  -7.7656  -4.2859  -3.9977
    -3.3662  -3.1291  -2.1358  -1.8861   1.0742   1.4250   2.0778   2.2812

          k = 0.4667 0.2762 0.0000 ( 31068 PWs)   bands (ev):

   -22.2477 -22.2476 -22.2311 -22.2306 -22.2109 -22.2097 -22.1983 -22.1973
   -22.1891 -22.1883 -13.4045 -13.3181  -7.7039  -7.6275  -4.7667  -4.4739
    -3.4888  -3.2562  -2.5452  -2.2975   1.5560   1.9142   2.4929   2.7400

          k = 0.4667 0.3453 0.0000 ( 31065 PWs)   bands (ev):

   -22.2503 -22.2502 -22.2290 -22.2286 -22.2109 -22.2100 -22.1984 -22.1977
   -22.1882 -22.1875 -13.3343 -13.2680  -7.5308  -7.4800  -5.1358  -4.8639
    -3.7647  -3.5381  -2.7043  -2.5150   1.8758   2.1516   3.0130   3.3020

          k = 0.4667 0.4144 0.0000 ( 31086 PWs)   bands (ev):

   -22.2523 -22.2522 -22.2274 -22.2271 -22.2109 -22.2104 -22.1983 -22.1978
   -22.1874 -22.1870 -13.2735 -13.2317  -7.3761  -7.3515  -5.3605  -5.1511
    -4.0540  -3.8751  -2.7103  -2.5938   2.0927   2.2656   3.4322   3.6541

          k = 0.4667 0.4834 0.0000 ( 31072 PWs)   bands (ev):

   -22.2534 -22.2533 -22.2265 -22.2264 -22.2109 -22.2107 -22.1981 -22.1979
   -22.1870 -22.1868 -13.2326 -13.2182  -7.2820  -7.2759  -5.4231  -5.3408
    -4.1943  -4.1239  -2.6737  -2.6343   2.2316   2.2904   3.6867   3.7892

     the Fermi energy is    -0.8987 ev

!    total energy              =    -413.80386744 Ry
     estimated scf accuracy    <          1.1E-13 Ry
     smearing contrib. (-TS)   =       0.00011617 Ry
     internal energy E=F+TS    =    -413.80398361 Ry

     The total energy is F=E-TS. E is the sum of the following terms:
     one-electron contribution =   -1177.00587592 Ry
     hartree contribution      =     600.62053114 Ry
     xc contribution           =    -154.40014267 Ry
     ewald contribution        =     316.98150383 Ry

     convergence has been achieved in   7 iterations

     negative rho (up, down):  2.882E-05 0.000E+00

     Forces acting on atoms (cartesian axes, Ry/au):

     atom    1 type  1   force =     0.00001426    0.00000000   -0.00002179
     atom    2 type  1   force =     0.00001266    0.00000000    0.00003718
     atom    3 type  2   force =    -0.00001420    0.00000000   -0.00001835
     atom    4 type  2   force =    -0.00001271    0.00000000    0.00000296

     Total force =     0.000054     Total SCF correction =     0.000001

     bfgs converged in  18 scf cycles and  17 bfgs steps
     (criteria: energy <  1.0E-06 Ry, force <  3.8E-05 Ry/Bohr)

     End of BFGS Geometry Optimization

     Final energy   =    -413.8038674439 Ry

     File ./wfc-out/pwscf.bfgs deleted, as requested
Begin final coordinates

ATOMIC_POSITIONS (crystal)
Sn            0.5870617102        0.7500000000        0.1446201123
Sn            0.0870647784        0.2500000000        0.0065233635
Se            0.0270420093        0.2500000000        0.1421138560
Se            0.5270394761        0.7500000000        0.0090327221
End final coordinates



     Writing output data file ./wfc-out/pwscf.save/
 
     init_run     :      1.96s CPU      2.29s WALL (       1 calls)
     electrons    :    661.71s CPU    738.71s WALL (      18 calls)
     update_pot   :      7.09s CPU      7.19s WALL (      17 calls)
     forces       :     16.08s CPU     18.23s WALL (      18 calls)

     Called by init_run:
     wfcinit      :      1.16s CPU      1.30s WALL (       1 calls)
     potinit      :      0.16s CPU      0.16s WALL (       1 calls)
     hinit0       :      0.29s CPU      0.33s WALL (       1 calls)

     Called by electrons:
     c_bands      :    520.07s CPU    539.88s WALL (     159 calls)
     sum_band     :    110.21s CPU    133.30s WALL (     159 calls)
     v_of_rho     :      5.76s CPU      5.95s WALL (     160 calls)
     newd         :     27.45s CPU     45.44s WALL (     160 calls)
     mix_rho      :      0.81s CPU      0.84s WALL (     159 calls)

     Called by c_bands:
     init_us_2    :     11.73s CPU     12.72s WALL (   21568 calls)
     cegterg      :    459.22s CPU    475.43s WALL (   10176 calls)

     Called by *egterg:
     cdiaghg      :     29.24s CPU     29.89s WALL (   39015 calls)
     h_psi        :    346.31s CPU    360.26s WALL (   41255 calls)
     s_psi        :     14.81s CPU     15.22s WALL (   41255 calls)
     g_psi        :      1.88s CPU      1.93s WALL (   31015 calls)

     Called by h_psi:
     h_psi:calbec :     23.05s CPU     23.88s WALL (   41255 calls)
     vloc_psi     :    303.05s CPU    315.69s WALL (   41255 calls)
     add_vuspsi   :     17.79s CPU     18.24s WALL (   41255 calls)

     General routines
     calbec       :     33.27s CPU     34.45s WALL (   56039 calls)
     fft          :      5.62s CPU      5.75s WALL (    2276 calls)
     ffts         :      0.18s CPU      0.19s WALL (     319 calls)
     fftw         :    328.25s CPU    341.66s WALL ( 1548082 calls)
     interpolate  :      0.41s CPU      0.42s WALL (     160 calls)
 
     Parallel routines
     fft_scatt_xy :     46.01s CPU     47.99s WALL ( 1550677 calls)
     fft_scatt_yz :    190.71s CPU    198.21s WALL ( 1550677 calls)
 
     PWSCF        :  11m32.71s CPU  14m12.37s WALL

 
   This run was terminated on:   6:38: 4   8May2023            

=------------------------------------------------------------------------------=
   JOB DONE.
=------------------------------------------------------------------------------=
