Automatically generated mesh
      36
Reciprocal lattice
    0.08333333333334    0.08333333333333    0.00000000000000             1
    0.25000000000000    0.08333333333334    0.00000000000000             1
    0.41666666666667    0.08333333333334    0.00000000000000             1
   -0.41666666666666    0.08333333333333    0.00000000000000             1
   -0.25000000000000    0.08333333333334    0.00000000000000             1
   -0.08333333333333    0.08333333333334    0.00000000000000             1
    0.08333333333334    0.25000000000000    0.00000000000000             1
    0.25000000000000    0.25000000000000    0.00000000000000             1
    0.41666666666667    0.25000000000000    0.00000000000000             1
   -0.41666666666666    0.25000000000000    0.00000000000000             1
   -0.25000000000000    0.25000000000000    0.00000000000000             1
   -0.08333333333333    0.25000000000000    0.00000000000000             1
    0.08333333333334    0.41666666666667    0.00000000000000             1
    0.25000000000000    0.41666666666667    0.00000000000000             1
    0.41666666666667    0.41666666666667    0.00000000000000             1
   -0.41666666666666    0.41666666666667    0.00000000000000             1
   -0.25000000000000    0.41666666666667    0.00000000000000             1
   -0.08333333333333    0.41666666666667    0.00000000000000             1
    0.08333333333334   -0.41666666666667    0.00000000000000             1
    0.25000000000000   -0.41666666666666    0.00000000000000             1
    0.41666666666667   -0.41666666666666    0.00000000000000             1
   -0.41666666666666   -0.41666666666667    0.00000000000000             1
   -0.25000000000000   -0.41666666666666    0.00000000000000             1
   -0.08333333333333   -0.41666666666666    0.00000000000000             1
    0.08333333333334   -0.25000000000000    0.00000000000000             1
    0.25000000000000   -0.25000000000000    0.00000000000000             1
    0.41666666666667   -0.25000000000000    0.00000000000000             1
   -0.41666666666666   -0.25000000000000    0.00000000000000             1
   -0.25000000000000   -0.25000000000000    0.00000000000000             1
   -0.08333333333333   -0.25000000000000    0.00000000000000             1
    0.08333333333334   -0.08333333333333    0.00000000000000             1
    0.25000000000000   -0.08333333333333    0.00000000000000             1
    0.41666666666667   -0.08333333333333    0.00000000000000             1
   -0.41666666666666   -0.08333333333333    0.00000000000000             1
   -0.25000000000000   -0.08333333333333    0.00000000000000             1
   -0.08333333333333   -0.08333333333333    0.00000000000000             1
