 vasp.5.4.4.18Apr17-6-g9f103f2a35 (build Sep 16 2021 13:51:27) complex          
  
 executed on             LinuxIFC date 2023.03.16  11:28:57
 running on   24 total cores
 distrk:  each k-point on   24 cores,    1 groups
 distr:  one band on NCORES_PER_BAND=  24 cores,    1 groups


--------------------------------------------------------------------------------------------------------


 INCAR:
 POTCAR:    PAW_PBE Sn 08Apr2002                  
 POTCAR:    PAW_PBE Se 06Sep2000                  

 ----------------------------------------------------------------------------- 
|                                                                             |
|           W    W    AA    RRRRR   N    N  II  N    N   GGGG   !!!           |
|           W    W   A  A   R    R  NN   N  II  NN   N  G    G  !!!           |
|           W    W  A    A  R    R  N N  N  II  N N  N  G       !!!           |
|           W WW W  AAAAAA  RRRRR   N  N N  II  N  N N  G  GGG   !            |
|           WW  WW  A    A  R   R   N   NN  II  N   NN  G    G                |
|           W    W  A    A  R    R  N    N  II  N    N   GGGG   !!!           |
|                                                                             |
|      For optimal performance we recommend to set                            |
|        NCORE= 4 - approx SQRT( number of cores)                             |
|      NCORE specifies how many cores store one orbital (NPAR=cpu/NCORE).     |
|      This setting can  greatly improve the performance of VASP for DFT.     |
|      The default,   NCORE=1            might be grossly inefficient         |
|      on modern multi-core architectures or massively parallel machines.     |
|      Do your own testing !!!!                                               |
|      Unfortunately you need to use the default for GW and RPA calculations. |
|      (for HF NCORE is supported but not extensively tested yet)             |
|                                                                             |
 ----------------------------------------------------------------------------- 

 POTCAR:    PAW_PBE Sn 08Apr2002                  
   VRHFIN =Sn: s2p2                                                             
   LEXCH  = PE                                                                  
   EATOM  =    94.0860 eV,    6.9151 Ry                                         
                                                                                
   TITEL  = PAW_PBE Sn 08Apr2002                                                
   LULTRA =        F    use ultrasoft PP ?                                      
   IUNSCR =        1    unscreen: 0-lin 1-nonlin 2-no                           
   RPACOR =    2.000    partial core radius                                     
   POMASS =  118.710; ZVAL   =    4.000    mass and valenz                      
   RCORE  =    3.000    outmost cutoff radius                                   
   RWIGS  =    2.960; RWIGS  =    1.566    wigner-seitz radius (au A)           
   ENMAX  =  103.236; ENMIN  =   77.427 eV                                      
   ICORE  =        3    local potential                                         
   LCOR   =        T    correct aug charges                                     
   LPAW   =        T    paw PP                                                  
   EAUG   =  263.585                                                            
   DEXC   =    0.000                                                            
   RMAX   =    3.078    core radius for proj-oper                               
   RAUG   =    1.300    factor for augmentation sphere                          
   RDEP   =    3.022    radius for radial grids                                 
   RDEPT  =    2.655    core radius for aug-charge                              
                                                                                
   Atomic configuration                                                         
   13 entries                                                                   
     n  l   j            E        occ.                                          
     1  0  0.50    -29007.2859   2.0000                                         
     2  0  0.50     -4378.8056   2.0000                                         
     2  1  1.50     -3930.4293   6.0000                                         
     3  0  0.50      -845.0264   2.0000                                         
     3  1  1.50      -698.5725   6.0000                                         
     3  2  2.50      -473.2839  10.0000                                         
     4  0  0.50      -133.9036   2.0000                                         
     4  1  1.50       -89.6752   6.0000                                         
     4  2  2.50       -25.8375  10.0000                                         
     5  0  0.50       -10.5484   2.0000                                         
     5  1  0.50        -3.6940   2.0000                                         
     5  2  1.50        -1.3606   0.0000                                         
     4  3  2.50        -4.0817   0.0000                                         
   Description                                                                  
     l       E           TYP  RCUT    TYP  RCUT                                 
     0    -10.5483727     23  3.000                                             
     0     27.2116520     23  3.000                                             
     1     -3.6939829     23  3.000                                             
     1      1.9821976     23  3.000                                             
     2     -1.3605826     23  3.000                                             
     3     -2.7211652     23  3.000                                             
  local pseudopotential read in
  partial core-charges read in
  partial kinetic energy density read in
  atomic valenz-charges read in
  non local Contribution for L=           0  read in
    real space projection operators read in
  non local Contribution for L=           0  read in
    real space projection operators read in
  non local Contribution for L=           1  read in
    real space projection operators read in
  non local Contribution for L=           1  read in
    real space projection operators read in
  non local Contribution for L=           2  read in
    real space projection operators read in
    PAW grid and wavefunctions read in
 
   number of l-projection  operators is LMAX  =           5
   number of lm-projection operators is LMMAX =          13
 
 POTCAR:    PAW_PBE Se 06Sep2000                  
   VRHFIN =Se: s2p4                                                             
   LEXCH  = PE                                                                  
   EATOM  =   257.1286 eV,   18.8984 Ry                                         
                                                                                
   TITEL  = PAW_PBE Se 06Sep2000                                                
   LULTRA =        F    use ultrasoft PP ?                                      
   IUNSCR =        1    unscreen: 0-lin 1-nonlin 2-no                           
   RPACOR =    1.900    partial core radius                                     
   POMASS =   78.960; ZVAL   =    6.000    mass and valenz                      
   RCORE  =    2.100    outmost cutoff radius                                   
   RWIGS  =    2.200; RWIGS  =    1.164    wigner-seitz radius (au A)           
   ENMAX  =  211.555; ENMIN  =  158.666 eV                                      
   ICORE  =        3    local potential                                         
   LCOR   =        T    correct aug charges                                     
   LPAW   =        T    paw PP                                                  
   EAUG   =  446.842                                                            
   DEXC   =    0.000                                                            
   RMAX   =    2.147    core radius for proj-oper                               
   RAUG   =    1.300    factor for augmentation sphere                          
   RDEP   =    2.177    radius for radial grids                                 
   RDEPT  =    1.928    core radius for aug-charge                              
                                                                                
   Atomic configuration                                                         
   10 entries                                                                   
     n  l   j            E        occ.                                          
     1  0  0.50    -12503.4787   2.0000                                         
     2  0  0.50     -1606.9547   2.0000                                         
     2  1  1.50     -1413.3140   6.0000                                         
     3  0  0.50      -213.4885   2.0000                                         
     3  1  1.50      -152.9538   6.0000                                         
     3  2  2.50       -53.1221  10.0000                                         
     4  0  0.50       -17.2865   2.0000                                         
     4  1  0.50        -6.5110   4.0000                                         
     4  2  2.50        -6.8029   0.0000                                         
     4  3  2.50        -6.8029   0.0000                                         
   Description                                                                  
     l       E           TYP  RCUT    TYP  RCUT                                 
     0    -17.2865377     23  2.100                                             
     0    -15.3094411     23  2.100                                             
     1     -6.5110275     23  2.100                                             
     1     -0.0695192     23  2.100                                             
     2     -6.8029130     23  2.100                                             
     3     -1.3605826      7  2.100                                             
  local pseudopotential read in
  partial core-charges read in
  partial kinetic energy density read in
  atomic valenz-charges read in
  non local Contribution for L=           0  read in
    real space projection operators read in
  non local Contribution for L=           0  read in
    real space projection operators read in
  non local Contribution for L=           1  read in
    real space projection operators read in
  non local Contribution for L=           1  read in
    real space projection operators read in
  non local Contribution for L=           2  read in
    real space projection operators read in
    PAW grid and wavefunctions read in
 
   number of l-projection  operators is LMAX  =           5
   number of lm-projection operators is LMMAX =          13
 
 WARNING: PSMAXN for non-local potential too small
          PSMAXN should be >   12.5490833729506       NTYP=           1
  PAW_PBE Sn 08Apr2002                  :
 energy of atom  1       EATOM=  -94.0860
 kinetic energy error for atom=    0.0000 (will be added to EATOM!!)
  PAW_PBE Se 06Sep2000                  :
 energy of atom  2       EATOM= -257.1286
 kinetic energy error for atom=    0.0006 (will be added to EATOM!!)
 
 
 POSCAR:  POSCAR with strain of 0.005            
  positions in direct lattice
  No initial velocities read in
 exchange correlation table for  LEXCH =        8
   RHO(1)=    0.500       N(1)  =     2000
   RHO(2)=  100.500       N(2)  =     4000
 


--------------------------------------------------------------------------------------------------------


 ion  position               nearest neighbor table
   1  0.581  0.750  0.569-   4 2.72   3 2.92   3 2.93   3 3.22   3 3.24
   2  0.081  0.250  0.431-   3 2.72   4 2.92   4 2.93   4 3.22   4 3.24
   3  0.033  0.250  0.567-   2 2.72   1 2.92   1 2.93   1 3.22   1 3.24
   4  0.533  0.750  0.433-   1 2.72   2 2.92   2 2.93   2 3.22   2 3.24
 
  LATTYP: Found a simple monoclinic cell.
 ALAT       =     6.1653681777
 B/A-ratio  =     3.2439263031
 C/A-ratio  =     1.5924461248
 COS(beta)  =    -0.9499777655
  
  Lattice vectors:
  
 A1 = (  -4.4149997434,  -4.3034337491,   0.0000000000)
 A2 = (   0.0000000000,   0.0000000000, -20.0000000000)
 A3 = (   8.8192682922,   4.3143896410,   0.0000000000)


Analysis of symmetry for initial positions (statically):
=====================================================================
 Subroutine PRICEL returns:
 Original cell was already a primitive cell.
 

 Routine SETGRP: Setting up the symmetry group for a 
 simple monoclinic supercell.


 Subroutine GETGRP returns: Found  2 space group operations
 (whereof  1 operations were pure point group operations)
 out of a pool of  4 trial point group operations.


The static configuration has the point symmetry C_1 .
 The point group associated with its full space group is C_1h.


Analysis of symmetry for dynamics (positions and initial velocities):
=====================================================================
 Subroutine PRICEL returns:
 Original cell was already a primitive cell.
 

 Routine SETGRP: Setting up the symmetry group for a 
 simple monoclinic supercell.


 Subroutine GETGRP returns: Found  2 space group operations
 (whereof  1 operations were pure point group operations)
 out of a pool of  4 trial point group operations.


The dynamic configuration has the point symmetry C_1 .
 The point group associated with its full space group is C_1h.


 Subroutine INISYM returns: Found  2 space group operations
 (whereof  1 operations are pure point group operations),
 and found     1 'primitive' translations

 
 
 KPOINTS: KMesh Grid                              

Automatic generation of k-mesh.
Space group operators:
 irot       det(A)        alpha          n_x          n_y          n_z        tau_x        tau_y        tau_z
    1     1.000000     0.000000     1.000000     0.000000     0.000000     0.000000     0.000000     0.000000
    2    -1.000000   180.000000     0.000000     0.000000     1.000000    -0.500000    -0.500000     0.000000
 
 Subroutine IBZKPT returns following result:
 ===========================================
 
 Found    113 irreducible k-points:
 
 Following reciprocal coordinates:
            Coordinates               Weight
  0.000000  0.000000  0.000000      1.000000
  0.066667  0.000000  0.000000      2.000000
  0.133333  0.000000  0.000000      2.000000
  0.200000  0.000000  0.000000      2.000000
  0.266667  0.000000  0.000000      2.000000
  0.333333  0.000000  0.000000      2.000000
  0.400000  0.000000  0.000000      2.000000
  0.466667  0.000000  0.000000      2.000000
  0.000000  0.066667  0.000000      2.000000
  0.066667  0.066667  0.000000      2.000000
  0.133333  0.066667  0.000000      2.000000
  0.200000  0.066667  0.000000      2.000000
  0.266667  0.066667  0.000000      2.000000
  0.333333  0.066667  0.000000      2.000000
  0.400000  0.066667  0.000000      2.000000
  0.466667  0.066667  0.000000      2.000000
 -0.466667  0.066667  0.000000      2.000000
 -0.400000  0.066667  0.000000      2.000000
 -0.333333  0.066667  0.000000      2.000000
 -0.266667  0.066667  0.000000      2.000000
 -0.200000  0.066667  0.000000      2.000000
 -0.133333  0.066667  0.000000      2.000000
 -0.066667  0.066667  0.000000      2.000000
  0.000000  0.133333  0.000000      2.000000
  0.066667  0.133333  0.000000      2.000000
  0.133333  0.133333  0.000000      2.000000
  0.200000  0.133333  0.000000      2.000000
  0.266667  0.133333  0.000000      2.000000
  0.333333  0.133333  0.000000      2.000000
  0.400000  0.133333  0.000000      2.000000
  0.466667  0.133333  0.000000      2.000000
 -0.466667  0.133333  0.000000      2.000000
 -0.400000  0.133333  0.000000      2.000000
 -0.333333  0.133333  0.000000      2.000000
 -0.266667  0.133333  0.000000      2.000000
 -0.200000  0.133333  0.000000      2.000000
 -0.133333  0.133333  0.000000      2.000000
 -0.066667  0.133333  0.000000      2.000000
 -0.000000  0.200000  0.000000      2.000000
  0.066667  0.200000  0.000000      2.000000
  0.133333  0.200000  0.000000      2.000000
  0.200000  0.200000  0.000000      2.000000
  0.266667  0.200000  0.000000      2.000000
  0.333333  0.200000  0.000000      2.000000
  0.400000  0.200000  0.000000      2.000000
  0.466667  0.200000  0.000000      2.000000
 -0.466667  0.200000  0.000000      2.000000
 -0.400000  0.200000  0.000000      2.000000
 -0.333333  0.200000  0.000000      2.000000
 -0.266667  0.200000  0.000000      2.000000
 -0.200000  0.200000  0.000000      2.000000
 -0.133333  0.200000  0.000000      2.000000
 -0.066667  0.200000  0.000000      2.000000
 -0.000000  0.266667  0.000000      2.000000
  0.066667  0.266667  0.000000      2.000000
  0.133333  0.266667  0.000000      2.000000
  0.200000  0.266667  0.000000      2.000000
  0.266667  0.266667  0.000000      2.000000
  0.333333  0.266667  0.000000      2.000000
  0.400000  0.266667  0.000000      2.000000
  0.466667  0.266667  0.000000      2.000000
 -0.466667  0.266667  0.000000      2.000000
 -0.400000  0.266667  0.000000      2.000000
 -0.333333  0.266667  0.000000      2.000000
 -0.266667  0.266667  0.000000      2.000000
 -0.200000  0.266667  0.000000      2.000000
 -0.133333  0.266667  0.000000      2.000000
 -0.066667  0.266667  0.000000      2.000000
  0.000000  0.333333  0.000000      2.000000
  0.066667  0.333333  0.000000      2.000000
  0.133333  0.333333  0.000000      2.000000
  0.200000  0.333333  0.000000      2.000000
  0.266667  0.333333  0.000000      2.000000
  0.333333  0.333333  0.000000      2.000000
  0.400000  0.333333  0.000000      2.000000
  0.466667  0.333333  0.000000      2.000000
 -0.466667  0.333333  0.000000      2.000000
 -0.400000  0.333333  0.000000      2.000000
 -0.333333  0.333333  0.000000      2.000000
 -0.266667  0.333333  0.000000      2.000000
 -0.200000  0.333333  0.000000      2.000000
 -0.133333  0.333333  0.000000      2.000000
 -0.066667  0.333333  0.000000      2.000000
 -0.000000  0.400000  0.000000      2.000000
  0.066667  0.400000  0.000000      2.000000
  0.133333  0.400000  0.000000      2.000000
  0.200000  0.400000  0.000000      2.000000
  0.266667  0.400000  0.000000      2.000000
  0.333333  0.400000  0.000000      2.000000
  0.400000  0.400000  0.000000      2.000000
  0.466667  0.400000  0.000000      2.000000
 -0.466667  0.400000  0.000000      2.000000
 -0.400000  0.400000  0.000000      2.000000
 -0.333333  0.400000  0.000000      2.000000
 -0.266667  0.400000  0.000000      2.000000
 -0.200000  0.400000  0.000000      2.000000
 -0.133333  0.400000  0.000000      2.000000
 -0.066667  0.400000  0.000000      2.000000
 -0.000000  0.466667  0.000000      2.000000
  0.066667  0.466667  0.000000      2.000000
  0.133333  0.466667  0.000000      2.000000
  0.200000  0.466667  0.000000      2.000000
  0.266667  0.466667  0.000000      2.000000
  0.333333  0.466667  0.000000      2.000000
  0.400000  0.466667  0.000000      2.000000
  0.466667  0.466667  0.000000      2.000000
 -0.466667  0.466667  0.000000      2.000000
 -0.400000  0.466667  0.000000      2.000000
 -0.333333  0.466667  0.000000      2.000000
 -0.266667  0.466667  0.000000      2.000000
 -0.200000  0.466667  0.000000      2.000000
 -0.133333  0.466667  0.000000      2.000000
 -0.066667  0.466667  0.000000      2.000000
 
 Following cartesian coordinates:
            Coordinates               Weight
  0.000000  0.000000  0.000000      1.000000
  0.015137 -0.000038  0.000000      2.000000
  0.030274 -0.000076  0.000000      2.000000
  0.045411 -0.000114  0.000000      2.000000
  0.060548 -0.000151  0.000000      2.000000
  0.075685 -0.000189  0.000000      2.000000
  0.090822 -0.000227  0.000000      2.000000
  0.105958 -0.000265  0.000000      2.000000
 -0.000039  0.015531  0.000000      2.000000
  0.015098  0.015493  0.000000      2.000000
  0.030235  0.015455  0.000000      2.000000
  0.045372  0.015418  0.000000      2.000000
  0.060509  0.015380  0.000000      2.000000
  0.075646  0.015342  0.000000      2.000000
  0.090783  0.015304  0.000000      2.000000
  0.105920  0.015266  0.000000      2.000000
 -0.105997  0.015796  0.000000      2.000000
 -0.090860  0.015758  0.000000      2.000000
 -0.075723  0.015720  0.000000      2.000000
 -0.060586  0.015683  0.000000      2.000000
 -0.045449  0.015645  0.000000      2.000000
 -0.030312  0.015607  0.000000      2.000000
 -0.015176  0.015569  0.000000      2.000000
 -0.000077  0.031062  0.000000      2.000000
  0.015060  0.031024  0.000000      2.000000
  0.030197  0.030987  0.000000      2.000000
  0.045334  0.030949  0.000000      2.000000
  0.060470  0.030911  0.000000      2.000000
  0.075607  0.030873  0.000000      2.000000
  0.090744  0.030835  0.000000      2.000000
  0.105881  0.030797  0.000000      2.000000
 -0.106036  0.031327  0.000000      2.000000
 -0.090899  0.031289  0.000000      2.000000
 -0.075762  0.031251  0.000000      2.000000
 -0.060625  0.031214  0.000000      2.000000
 -0.045488  0.031176  0.000000      2.000000
 -0.030351  0.031138  0.000000      2.000000
 -0.015214  0.031100  0.000000      2.000000
 -0.000116  0.046593  0.000000      2.000000
  0.015021  0.046556  0.000000      2.000000
  0.030158  0.046518  0.000000      2.000000
  0.045295  0.046480  0.000000      2.000000
  0.060432  0.046442  0.000000      2.000000
  0.075569  0.046404  0.000000      2.000000
  0.090706  0.046366  0.000000      2.000000
  0.105843  0.046329  0.000000      2.000000
 -0.106074  0.046858  0.000000      2.000000
 -0.090937  0.046820  0.000000      2.000000
 -0.075801  0.046783  0.000000      2.000000
 -0.060664  0.046745  0.000000      2.000000
 -0.045527  0.046707  0.000000      2.000000
 -0.030390  0.046669  0.000000      2.000000
 -0.015253  0.046631  0.000000      2.000000
 -0.000155  0.062125  0.000000      2.000000
  0.014982  0.062087  0.000000      2.000000
  0.030119  0.062049  0.000000      2.000000
  0.045256  0.062011  0.000000      2.000000
  0.060393  0.061973  0.000000      2.000000
  0.075530  0.061935  0.000000      2.000000
  0.090667  0.061898  0.000000      2.000000
  0.105804  0.061860  0.000000      2.000000
 -0.106113  0.062389  0.000000      2.000000
 -0.090976  0.062352  0.000000      2.000000
 -0.075839  0.062314  0.000000      2.000000
 -0.060702  0.062276  0.000000      2.000000
 -0.045565  0.062238  0.000000      2.000000
 -0.030428  0.062200  0.000000      2.000000
 -0.015291  0.062162  0.000000      2.000000
 -0.000193  0.077656  0.000000      2.000000
  0.014944  0.077618  0.000000      2.000000
  0.030081  0.077580  0.000000      2.000000
  0.045218  0.077542  0.000000      2.000000
  0.060355  0.077504  0.000000      2.000000
  0.075491  0.077466  0.000000      2.000000
  0.090628  0.077429  0.000000      2.000000
  0.105765  0.077391  0.000000      2.000000
 -0.106152  0.077921  0.000000      2.000000
 -0.091015  0.077883  0.000000      2.000000
 -0.075878  0.077845  0.000000      2.000000
 -0.060741  0.077807  0.000000      2.000000
 -0.045604  0.077769  0.000000      2.000000
 -0.030467  0.077731  0.000000      2.000000
 -0.015330  0.077694  0.000000      2.000000
 -0.000232  0.093187  0.000000      2.000000
  0.014905  0.093149  0.000000      2.000000
  0.030042  0.093111  0.000000      2.000000
  0.045179  0.093073  0.000000      2.000000
  0.060316  0.093035  0.000000      2.000000
  0.075453  0.092998  0.000000      2.000000
  0.090590  0.092960  0.000000      2.000000
  0.105727  0.092922  0.000000      2.000000
 -0.106190  0.093452  0.000000      2.000000
 -0.091053  0.093414  0.000000      2.000000
 -0.075916  0.093376  0.000000      2.000000
 -0.060780  0.093338  0.000000      2.000000
 -0.045643  0.093300  0.000000      2.000000
 -0.030506  0.093263  0.000000      2.000000
 -0.015369  0.093225  0.000000      2.000000
 -0.000270  0.108718  0.000000      2.000000
  0.014866  0.108680  0.000000      2.000000
  0.030003  0.108642  0.000000      2.000000
  0.045140  0.108604  0.000000      2.000000
  0.060277  0.108567  0.000000      2.000000
  0.075414  0.108529  0.000000      2.000000
  0.090551  0.108491  0.000000      2.000000
  0.105688  0.108453  0.000000      2.000000
 -0.106229  0.108983  0.000000      2.000000
 -0.091092  0.108945  0.000000      2.000000
 -0.075955  0.108907  0.000000      2.000000
 -0.060818  0.108869  0.000000      2.000000
 -0.045681  0.108832  0.000000      2.000000
 -0.030544  0.108794  0.000000      2.000000
 -0.015407  0.108756  0.000000      2.000000
 


--------------------------------------------------------------------------------------------------------




 Dimension of arrays:
   k-points           NKPTS =    113   k-points in BZ     NKDIM =    113   number of bands    NBANDS=     14
   number of dos      NEDOS =    301   number of ions     NIONS =      4
   non local maximal  LDIM  =      5   non local SUM 2l+1 LMDIM =     13
   total plane-waves  NPLWV = 207360
   max r-space proj   IRMAX =      1   max aug-charges    IRDMAX=  52983
   dimension x,y,z NGX =    36 NGY =   36 NGZ =  160
   dimension x,y,z NGXF=    72 NGYF=   72 NGZF=  320
   support grid    NGXF=    72 NGYF=   72 NGZF=  320
   ions per type =               2   2
   NGX,Y,Z   is equivalent  to a cutoff of  13.59, 13.94, 13.30 a.u.
   NGXF,Y,Z  is equivalent  to a cutoff of  27.18, 27.89, 26.60 a.u.

 SYSTEM =  SnSe                                    
 POSCAR =   POSCAR with strain of 0.005            

 Startparameter for this run:
   NWRITE =      2    write-flag & timer
   PREC   = accura    normal or accurate (medium, high low for compatibility)
   ISTART =      0    job   : 0-new  1-cont  2-samecut
   ICHARG =      2    charge: 1-file 2-atom 10-const
   ISPIN  =      1    spin polarized calculation?
   LNONCOLLINEAR =      F non collinear calculations
   LSORBIT =      F    spin-orbit coupling
   INIWAV =      1    electr: 0-lowe 1-rand  2-diag
   LASPH  =      F    aspherical Exc in radial PAW
   METAGGA=      F    non-selfconsistent MetaGGA calc.

 Electronic Relaxation 1
   ENCUT  =  600.0 eV  44.10 Ry    6.64 a.u.   8.80  8.57 39.94*2*pi/ulx,y,z
   ENINI  =  600.0     initial cutoff
   ENAUG  =  446.8 eV  augmentation charge cutoff
   NELM   =     60;   NELMIN=  2; NELMDL= -5     # of ELM steps 
   EDIFF  = 0.1E-05   stopping-criterion for ELM
   LREAL  =      F    real-space projection
   NLSPLINE    = F    spline interpolate recip. space projectors
   LCOMPAT=      F    compatible to vasp.4.4
   GGA_COMPAT  = T    GGA compatible to vasp.4.4-vasp.4.6
   LMAXPAW     = -100 max onsite density
   LMAXMIX     =    2 max onsite mixed and CHGCAR
   VOSKOWN=      0    Vosko Wilk Nusair interpolation
   ROPT   =    0.00000   0.00000
 Ionic relaxation
   EDIFFG = -.1E-02   stopping-criterion for IOM
   NSW    =    100    number of steps for IOM
   NBLOCK =      1;   KBLOCK =    100    inner block; outer block 
   IBRION =      2    ionic relax: 0-MD 1-quasi-New 2-CG
   NFREE  =      1    steps in history (QN), initial steepest desc. (CG)
   ISIF   =      2    stress and relaxation
   IWAVPR =     11    prediction:  0-non 1-charg 2-wave 3-comb
   ISYM   =      2    0-nonsym 1-usesym 2-fastsym
   LCORR  =      T    Harris-Foulkes like correction to forces

   POTIM  = 0.5000    time-step for ionic-motion
   TEIN   =    0.0    initial temperature
   TEBEG  =    0.0;   TEEND  =   0.0 temperature during run
   SMASS  =  -3.00    Nose mass-parameter (am)
   estimated Nose-frequenzy (Omega)   =  0.10E-29 period in steps =****** mass=  -0.443E-27a.u.
   SCALEE = 1.0000    scale energy and forces
   NPACO  =    256;   APACO  = 16.0  distance and # of slots for P.C.
   PSTRESS=    0.0 pullay stress

  Mass of Ions in am
   POMASS = 118.71 78.96
  Ionic Valenz
   ZVAL   =   4.00  6.00
  Atomic Wigner-Seitz radii
   RWIGS  =  -1.00 -1.00
  virtual crystal weights 
   VCA    =   1.00  1.00
   NELECT =      20.0000    total number of electrons
   NUPDOWN=      -1.0000    fix difference up-down

 DOS related values:
   EMIN   =  10.00;   EMAX   =-10.00  energy-range for DOS
   EFERMI =   0.00
   ISMEAR =     0;   SIGMA  =   0.10  broadening in eV -4-tet -1-fermi 0-gaus

 Electronic relaxation 2 (details)
   IALGO  =     38    algorithm
   LDIAG  =      T    sub-space diagonalisation (order eigenvalues)
   LSUBROT=      F    optimize rotation matrix (better conditioning)
   TURBO    =      0    0=normal 1=particle mesh
   IRESTART =      0    0=no restart 2=restart with 2 vectors
   NREBOOT  =      0    no. of reboots
   NMIN     =      0    reboot dimension
   EREF     =   0.00    reference energy to select bands
   IMIX   =      4    mixing-type and parameters
     AMIX     =   0.40;   BMIX     =  1.00
     AMIX_MAG =   1.60;   BMIX_MAG =  1.00
     AMIN     =   0.10
     WC   =   100.;   INIMIX=   1;  MIXPRE=   1;  MAXMIX= -45

 Intra band minimization:
   WEIMIN = 0.0010     energy-eigenvalue tresh-hold
   EBREAK =  0.18E-07  absolut break condition
   DEPER  =   0.30     relativ break condition  

   TIME   =   0.40     timestep for ELM

  volume/ion in A,a.u.               =      94.53       637.89
  Fermi-wavevector in a.u.,A,eV,Ry     =   0.614538  1.161308  5.138328  0.377656
  Thomas-Fermi vector in A             =   1.671584
 
 Write flags
   LWAVE        =      T    write WAVECAR
   LDOWNSAMPLE  =      F    k-point downsampling of WAVECAR
   LCHARG       =      T    write CHGCAR
   LVTOT        =      F    write LOCPOT, total local potential
   LVHAR        =      F    write LOCPOT, Hartree potential only
   LELF         =      F    write electronic localiz. function (ELF)
   LORBIT       =      0    0 simple, 1 ext, 2 COOP (PROOUT), +10 PAW based schemes


 Dipole corrections
   LMONO  =      F    monopole corrections only (constant potential shift)
   LDIPOL =      F    correct potential (dipole corrections)
   IDIPOL =      0    1-x, 2-y, 3-z, 4-all directions 
   EPSILON=  1.0000000 bulk dielectric constant

 Exchange correlation treatment:
   GGA     =    PE    GGA type
   LEXCH   =     8    internal setting for exchange type
   VOSKOWN=      0    Vosko Wilk Nusair interpolation
   LHFCALC =     F    Hartree Fock is set to
   LHFONE  =     F    Hartree Fock one center treatment
   AEXX    =    0.0000 exact exchange contribution

 Linear response parameters
   LEPSILON=     F    determine dielectric tensor
   LRPA    =     F    only Hartree local field effects (RPA)
   LNABLA  =     F    use nabla operator in PAW spheres
   LVEL    =     F    velocity operator in full k-point grid
   LINTERFAST=   F  fast interpolation
   KINTER  =     0    interpolate to denser k-point grid
   CSHIFT  =0.1000    complex shift for real part using Kramers Kronig
   OMEGAMAX=  -1.0    maximum frequency
   DEG_THRESHOLD= 0.2000000E-02 threshold for treating states as degnerate
   RTIME   =   -0.100 relaxation time in fs
  (WPLASMAI=    0.000 imaginary part of plasma frequency in eV, 0.658/RTIME)
   DFIELD  = 0.0000000 0.0000000 0.0000000 field for delta impulse in time
 
 Orbital magnetization related:
   ORBITALMAG=     F  switch on orbital magnetization
   LCHIMAG   =     F  perturbation theory with respect to B field
   DQ        =  0.001000  dq finite difference perturbation B field
   LLRAUG    =     F  two centre corrections for induced B field



--------------------------------------------------------------------------------------------------------


 conjugate gradient relaxation of ions
 charge density and potential will be updated during run
 non-spin polarized calculation
 Variant of blocked Davidson
 Davidson routine will perform the subspace rotation
 perform sub-space diagonalisation
    after iterative eigenvector-optimisation
 modified Broyden-mixing scheme, WC =      100.0
 initial mixing is a Kerker type mixing with AMIX =  0.4000 and BMIX =      1.0000
 Hartree-type preconditioning will be used
 using additional bands            4
 reciprocal scheme for non local part
 use partial core corrections
 calculate Harris-corrections to forces 
   (improved forces if not selfconsistent)
 use gradient corrections 
 use of overlap-Matrix (Vanderbilt PP)
 Gauss-broadening in eV      SIGMA  =   0.10


--------------------------------------------------------------------------------------------------------


  energy-cutoff  :      600.00
  volume of cell :      378.10
      direct lattice vectors                 reciprocal lattice vectors
     4.404268549  0.010955892  0.000000000     0.227053870 -0.000567635  0.000000000
     0.010731195  4.292477857  0.000000000    -0.000579520  0.232967123  0.000000000
     0.000000000  0.000000000 20.000000000     0.000000000  0.000000000  0.050000000

  length of vectors
     4.404282175  4.292491271 20.000000000     0.227054580  0.232967844  0.050000000


 
 k-points in units of 2pi/SCALE and weight: KMesh Grid                              
   0.00000000  0.00000000  0.00000000       0.004
   0.01513692 -0.00003784  0.00000000       0.009
   0.03027385 -0.00007568  0.00000000       0.009
   0.04541077 -0.00011353  0.00000000       0.009
   0.06054770 -0.00015137  0.00000000       0.009
   0.07568462 -0.00018921  0.00000000       0.009
   0.09082155 -0.00022705  0.00000000       0.009
   0.10595847 -0.00026490  0.00000000       0.009
  -0.00003863  0.01553114  0.00000000       0.009
   0.01509829  0.01549330  0.00000000       0.009
   0.03023521  0.01545546  0.00000000       0.009
   0.04537214  0.01541761  0.00000000       0.009
   0.06050906  0.01537977  0.00000000       0.009
   0.07564599  0.01534193  0.00000000       0.009
   0.09078291  0.01530409  0.00000000       0.009
   0.10591984  0.01526625  0.00000000       0.009
  -0.10599711  0.01579604  0.00000000       0.009
  -0.09086018  0.01575820  0.00000000       0.009
  -0.07572326  0.01572035  0.00000000       0.009
  -0.06058633  0.01568251  0.00000000       0.009
  -0.04544941  0.01564467  0.00000000       0.009
  -0.03031248  0.01560683  0.00000000       0.009
  -0.01517556  0.01556898  0.00000000       0.009
  -0.00007727  0.03106228  0.00000000       0.009
   0.01505966  0.03102444  0.00000000       0.009
   0.03019658  0.03098660  0.00000000       0.009
   0.04533350  0.03094876  0.00000000       0.009
   0.06047043  0.03091091  0.00000000       0.009
   0.07560735  0.03087307  0.00000000       0.009
   0.09074428  0.03083523  0.00000000       0.009
   0.10588120  0.03079739  0.00000000       0.009
  -0.10603574  0.03132718  0.00000000       0.009
  -0.09089882  0.03128934  0.00000000       0.009
  -0.07576189  0.03125149  0.00000000       0.009
  -0.06062497  0.03121365  0.00000000       0.009
  -0.04548804  0.03117581  0.00000000       0.009
  -0.03035112  0.03113797  0.00000000       0.009
  -0.01521419  0.03110013  0.00000000       0.009
  -0.00011590  0.04659342  0.00000000       0.009
   0.01502102  0.04655558  0.00000000       0.009
   0.03015795  0.04651774  0.00000000       0.009
   0.04529487  0.04647990  0.00000000       0.009
   0.06043179  0.04644206  0.00000000       0.009
   0.07556872  0.04640421  0.00000000       0.009
   0.09070564  0.04636637  0.00000000       0.009
   0.10584257  0.04632853  0.00000000       0.009
  -0.10607438  0.04685832  0.00000000       0.009
  -0.09093745  0.04682048  0.00000000       0.009
  -0.07580053  0.04678264  0.00000000       0.009
  -0.06066360  0.04674479  0.00000000       0.009
  -0.04552668  0.04670695  0.00000000       0.009
  -0.03038975  0.04666911  0.00000000       0.009
  -0.01525283  0.04663127  0.00000000       0.009
  -0.00015454  0.06212457  0.00000000       0.009
   0.01498239  0.06208672  0.00000000       0.009
   0.03011931  0.06204888  0.00000000       0.009
   0.04525624  0.06201104  0.00000000       0.009
   0.06039316  0.06197320  0.00000000       0.009
   0.07553008  0.06193535  0.00000000       0.009
   0.09066701  0.06189751  0.00000000       0.009
   0.10580393  0.06185967  0.00000000       0.009
  -0.10611301  0.06238946  0.00000000       0.009
  -0.09097609  0.06235162  0.00000000       0.009
  -0.07583916  0.06231378  0.00000000       0.009
  -0.06070224  0.06227594  0.00000000       0.009
  -0.04556531  0.06223809  0.00000000       0.009
  -0.03042839  0.06220025  0.00000000       0.009
  -0.01529146  0.06216241  0.00000000       0.009
  -0.00019317  0.07765571  0.00000000       0.009
   0.01494375  0.07761787  0.00000000       0.009
   0.03008068  0.07758002  0.00000000       0.009
   0.04521760  0.07754218  0.00000000       0.009
   0.06035453  0.07750434  0.00000000       0.009
   0.07549145  0.07746650  0.00000000       0.009
   0.09062837  0.07742865  0.00000000       0.009
   0.10576530  0.07739081  0.00000000       0.009
  -0.10615165  0.07792060  0.00000000       0.009
  -0.09101472  0.07788276  0.00000000       0.009
  -0.07587780  0.07784492  0.00000000       0.009
  -0.06074087  0.07780708  0.00000000       0.009
  -0.04560395  0.07776923  0.00000000       0.009
  -0.03046702  0.07773139  0.00000000       0.009
  -0.01533010  0.07769355  0.00000000       0.009
  -0.00023181  0.09318685  0.00000000       0.009
   0.01490512  0.09314901  0.00000000       0.009
   0.03004204  0.09311116  0.00000000       0.009
   0.04517897  0.09307332  0.00000000       0.009
   0.06031589  0.09303548  0.00000000       0.009
   0.07545282  0.09299764  0.00000000       0.009
   0.09058974  0.09295980  0.00000000       0.009
   0.10572666  0.09292195  0.00000000       0.009
  -0.10619028  0.09345175  0.00000000       0.009
  -0.09105336  0.09341390  0.00000000       0.009
  -0.07591643  0.09337606  0.00000000       0.009
  -0.06077951  0.09333822  0.00000000       0.009
  -0.04564258  0.09330038  0.00000000       0.009
  -0.03050566  0.09326253  0.00000000       0.009
  -0.01536873  0.09322469  0.00000000       0.009
  -0.00027044  0.10871799  0.00000000       0.009
   0.01486648  0.10868015  0.00000000       0.009
   0.03000341  0.10864231  0.00000000       0.009
   0.04514033  0.10860446  0.00000000       0.009
   0.06027726  0.10856662  0.00000000       0.009
   0.07541418  0.10852878  0.00000000       0.009
   0.09055111  0.10849094  0.00000000       0.009
   0.10568803  0.10845309  0.00000000       0.009
  -0.10622892  0.10898289  0.00000000       0.009
  -0.09109199  0.10894504  0.00000000       0.009
  -0.07595507  0.10890720  0.00000000       0.009
  -0.06081814  0.10886936  0.00000000       0.009
  -0.04568122  0.10883152  0.00000000       0.009
  -0.03054429  0.10879368  0.00000000       0.009
  -0.01540737  0.10875583  0.00000000       0.009
 
 k-points in reciprocal lattice and weights: KMesh Grid                              
   0.00000000  0.00000000  0.00000000       0.004
   0.06666667  0.00000000  0.00000000       0.009
   0.13333333  0.00000000  0.00000000       0.009
   0.20000000  0.00000000  0.00000000       0.009
   0.26666667  0.00000000  0.00000000       0.009
   0.33333333  0.00000000  0.00000000       0.009
   0.40000000  0.00000000  0.00000000       0.009
   0.46666667  0.00000000  0.00000000       0.009
   0.00000000  0.06666667  0.00000000       0.009
   0.06666667  0.06666667  0.00000000       0.009
   0.13333333  0.06666667  0.00000000       0.009
   0.20000000  0.06666667  0.00000000       0.009
   0.26666667  0.06666667  0.00000000       0.009
   0.33333333  0.06666667  0.00000000       0.009
   0.40000000  0.06666667  0.00000000       0.009
   0.46666667  0.06666667  0.00000000       0.009
  -0.46666667  0.06666667  0.00000000       0.009
  -0.40000000  0.06666667  0.00000000       0.009
  -0.33333333  0.06666667  0.00000000       0.009
  -0.26666667  0.06666667  0.00000000       0.009
  -0.20000000  0.06666667  0.00000000       0.009
  -0.13333333  0.06666667  0.00000000       0.009
  -0.06666667  0.06666667  0.00000000       0.009
   0.00000000  0.13333333  0.00000000       0.009
   0.06666667  0.13333333  0.00000000       0.009
   0.13333333  0.13333333  0.00000000       0.009
   0.20000000  0.13333333  0.00000000       0.009
   0.26666667  0.13333333  0.00000000       0.009
   0.33333333  0.13333333  0.00000000       0.009
   0.40000000  0.13333333  0.00000000       0.009
   0.46666667  0.13333333  0.00000000       0.009
  -0.46666667  0.13333333  0.00000000       0.009
  -0.40000000  0.13333333  0.00000000       0.009
  -0.33333333  0.13333333  0.00000000       0.009
  -0.26666667  0.13333333  0.00000000       0.009
  -0.20000000  0.13333333  0.00000000       0.009
  -0.13333333  0.13333333  0.00000000       0.009
  -0.06666667  0.13333333  0.00000000       0.009
  -0.00000000  0.20000000  0.00000000       0.009
   0.06666667  0.20000000  0.00000000       0.009
   0.13333333  0.20000000  0.00000000       0.009
   0.20000000  0.20000000  0.00000000       0.009
   0.26666667  0.20000000  0.00000000       0.009
   0.33333333  0.20000000  0.00000000       0.009
   0.40000000  0.20000000  0.00000000       0.009
   0.46666667  0.20000000  0.00000000       0.009
  -0.46666667  0.20000000  0.00000000       0.009
  -0.40000000  0.20000000  0.00000000       0.009
  -0.33333333  0.20000000  0.00000000       0.009
  -0.26666667  0.20000000  0.00000000       0.009
  -0.20000000  0.20000000  0.00000000       0.009
  -0.13333333  0.20000000  0.00000000       0.009
  -0.06666667  0.20000000  0.00000000       0.009
  -0.00000000  0.26666667  0.00000000       0.009
   0.06666667  0.26666667  0.00000000       0.009
   0.13333333  0.26666667  0.00000000       0.009
   0.20000000  0.26666667  0.00000000       0.009
   0.26666667  0.26666667  0.00000000       0.009
   0.33333333  0.26666667  0.00000000       0.009
   0.40000000  0.26666667  0.00000000       0.009
   0.46666667  0.26666667  0.00000000       0.009
  -0.46666667  0.26666667  0.00000000       0.009
  -0.40000000  0.26666667  0.00000000       0.009
  -0.33333333  0.26666667  0.00000000       0.009
  -0.26666667  0.26666667  0.00000000       0.009
  -0.20000000  0.26666667  0.00000000       0.009
  -0.13333333  0.26666667  0.00000000       0.009
  -0.06666667  0.26666667  0.00000000       0.009
   0.00000000  0.33333333  0.00000000       0.009
   0.06666667  0.33333333  0.00000000       0.009
   0.13333333  0.33333333  0.00000000       0.009
   0.20000000  0.33333333  0.00000000       0.009
   0.26666667  0.33333333  0.00000000       0.009
   0.33333333  0.33333333  0.00000000       0.009
   0.40000000  0.33333333  0.00000000       0.009
   0.46666667  0.33333333  0.00000000       0.009
  -0.46666667  0.33333333  0.00000000       0.009
  -0.40000000  0.33333333  0.00000000       0.009
  -0.33333333  0.33333333  0.00000000       0.009
  -0.26666667  0.33333333  0.00000000       0.009
  -0.20000000  0.33333333  0.00000000       0.009
  -0.13333333  0.33333333  0.00000000       0.009
  -0.06666667  0.33333333  0.00000000       0.009
  -0.00000000  0.40000000  0.00000000       0.009
   0.06666667  0.40000000  0.00000000       0.009
   0.13333333  0.40000000  0.00000000       0.009
   0.20000000  0.40000000  0.00000000       0.009
   0.26666667  0.40000000  0.00000000       0.009
   0.33333333  0.40000000  0.00000000       0.009
   0.40000000  0.40000000  0.00000000       0.009
   0.46666667  0.40000000  0.00000000       0.009
  -0.46666667  0.40000000  0.00000000       0.009
  -0.40000000  0.40000000  0.00000000       0.009
  -0.33333333  0.40000000  0.00000000       0.009
  -0.26666667  0.40000000  0.00000000       0.009
  -0.20000000  0.40000000  0.00000000       0.009
  -0.13333333  0.40000000  0.00000000       0.009
  -0.06666667  0.40000000  0.00000000       0.009
  -0.00000000  0.46666667  0.00000000       0.009
   0.06666667  0.46666667  0.00000000       0.009
   0.13333333  0.46666667  0.00000000       0.009
   0.20000000  0.46666667  0.00000000       0.009
   0.26666667  0.46666667  0.00000000       0.009
   0.33333333  0.46666667  0.00000000       0.009
   0.40000000  0.46666667  0.00000000       0.009
   0.46666667  0.46666667  0.00000000       0.009
  -0.46666667  0.46666667  0.00000000       0.009
  -0.40000000  0.46666667  0.00000000       0.009
  -0.33333333  0.46666667  0.00000000       0.009
  -0.26666667  0.46666667  0.00000000       0.009
  -0.20000000  0.46666667  0.00000000       0.009
  -0.13333333  0.46666667  0.00000000       0.009
  -0.06666667  0.46666667  0.00000000       0.009
 
 position of ions in fractional coordinates (direct lattice) 
   0.58124336  0.75000000  0.56874314
   0.08124336  0.25000000  0.43125686
   0.03286064  0.25000000  0.56707387
   0.53286061  0.75000000  0.43292613
 
 position of ions in cartesian coordinates  (Angst):
   2.56800024  3.22572643 11.37486283
   0.36050037  1.07400956  8.62513717
   0.14740989  1.07347948 11.34147733
   2.35490964  3.22519636  8.65852267
 


--------------------------------------------------------------------------------------------------------


 k-point  1 :   0.0000 0.0000 0.0000  plane waves:   12663
 k-point  2 :   0.0667 0.0000 0.0000  plane waves:   12664
 k-point  3 :   0.1333 0.0000 0.0000  plane waves:   12645
 k-point  4 :   0.2000 0.0000 0.0000  plane waves:   12607
 k-point  5 :   0.2667 0.0000 0.0000  plane waves:   12590
 k-point  6 :   0.3333 0.0000 0.0000  plane waves:   12632
 k-point  7 :   0.4000 0.0000 0.0000  plane waves:   12652
 k-point  8 :   0.4667 0.0000 0.0000  plane waves:   12658
 k-point  9 :   0.0000 0.0667 0.0000  plane waves:   12635
 k-point 10 :   0.0667 0.0667 0.0000  plane waves:   12635
 k-point 11 :   0.1333 0.0667 0.0000  plane waves:   12622
 k-point 12 :   0.2000 0.0667 0.0000  plane waves:   12619
 k-point 13 :   0.2667 0.0667 0.0000  plane waves:   12600
 k-point 14 :   0.3333 0.0667 0.0000  plane waves:   12622
 k-point 15 :   0.4000 0.0667 0.0000  plane waves:   12652
 k-point 16 :   0.4667 0.0667 0.0000  plane waves:   12657
 k-point 17 :  -0.4667 0.0667 0.0000  plane waves:   12670
 k-point 18 :  -0.4000 0.0667 0.0000  plane waves:   12642
 k-point 19 :  -0.3333 0.0667 0.0000  plane waves:   12664
 k-point 20 :  -0.2667 0.0667 0.0000  plane waves:   12633
 k-point 21 :  -0.2000 0.0667 0.0000  plane waves:   12600
 k-point 22 :  -0.1333 0.0667 0.0000  plane waves:   12646
 k-point 23 :  -0.0667 0.0667 0.0000  plane waves:   12653
 k-point 24 :   0.0000 0.1333 0.0000  plane waves:   12625
 k-point 25 :   0.0667 0.1333 0.0000  plane waves:   12629
 k-point 26 :   0.1333 0.1333 0.0000  plane waves:   12623
 k-point 27 :   0.2000 0.1333 0.0000  plane waves:   12581
 k-point 28 :   0.2667 0.1333 0.0000  plane waves:   12607
 k-point 29 :   0.3333 0.1333 0.0000  plane waves:   12632
 k-point 30 :   0.4000 0.1333 0.0000  plane waves:   12629
 k-point 31 :   0.4667 0.1333 0.0000  plane waves:   12642
 k-point 32 :  -0.4667 0.1333 0.0000  plane waves:   12648
 k-point 33 :  -0.4000 0.1333 0.0000  plane waves:   12656
 k-point 34 :  -0.3333 0.1333 0.0000  plane waves:   12636
 k-point 35 :  -0.2667 0.1333 0.0000  plane waves:   12624
 k-point 36 :  -0.2000 0.1333 0.0000  plane waves:   12611
 k-point 37 :  -0.1333 0.1333 0.0000  plane waves:   12618
 k-point 38 :  -0.0667 0.1333 0.0000  plane waves:   12618
 k-point 39 :  -0.0000 0.2000 0.0000  plane waves:   12632
 k-point 40 :   0.0667 0.2000 0.0000  plane waves:   12618
 k-point 41 :   0.1333 0.2000 0.0000  plane waves:   12618
 k-point 42 :   0.2000 0.2000 0.0000  plane waves:   12619
 k-point 43 :   0.2667 0.2000 0.0000  plane waves:   12621
 k-point 44 :   0.3333 0.2000 0.0000  plane waves:   12611
 k-point 45 :   0.4000 0.2000 0.0000  plane waves:   12647
 k-point 46 :   0.4667 0.2000 0.0000  plane waves:   12662
 k-point 47 :  -0.4667 0.2000 0.0000  plane waves:   12642
 k-point 48 :  -0.4000 0.2000 0.0000  plane waves:   12649
 k-point 49 :  -0.3333 0.2000 0.0000  plane waves:   12626
 k-point 50 :  -0.2667 0.2000 0.0000  plane waves:   12622
 k-point 51 :  -0.2000 0.2000 0.0000  plane waves:   12628
 k-point 52 :  -0.1333 0.2000 0.0000  plane waves:   12613
 k-point 53 :  -0.0667 0.2000 0.0000  plane waves:   12617
 k-point 54 :  -0.0000 0.2667 0.0000  plane waves:   12614
 k-point 55 :   0.0667 0.2667 0.0000  plane waves:   12607
 k-point 56 :   0.1333 0.2667 0.0000  plane waves:   12608
 k-point 57 :   0.2000 0.2667 0.0000  plane waves:   12608
 k-point 58 :   0.2667 0.2667 0.0000  plane waves:   12620
 k-point 59 :   0.3333 0.2667 0.0000  plane waves:   12625
 k-point 60 :   0.4000 0.2667 0.0000  plane waves:   12621
 k-point 61 :   0.4667 0.2667 0.0000  plane waves:   12629
 k-point 62 :  -0.4667 0.2667 0.0000  plane waves:   12639
 k-point 63 :  -0.4000 0.2667 0.0000  plane waves:   12629
 k-point 64 :  -0.3333 0.2667 0.0000  plane waves:   12629
 k-point 65 :  -0.2667 0.2667 0.0000  plane waves:   12620
 k-point 66 :  -0.2000 0.2667 0.0000  plane waves:   12619
 k-point 67 :  -0.1333 0.2667 0.0000  plane waves:   12601
 k-point 68 :  -0.0667 0.2667 0.0000  plane waves:   12609
 k-point 69 :   0.0000 0.3333 0.0000  plane waves:   12593
 k-point 70 :   0.0667 0.3333 0.0000  plane waves:   12599
 k-point 71 :   0.1333 0.3333 0.0000  plane waves:   12588
 k-point 72 :   0.2000 0.3333 0.0000  plane waves:   12613
 k-point 73 :   0.2667 0.3333 0.0000  plane waves:   12607
 k-point 74 :   0.3333 0.3333 0.0000  plane waves:   12616
 k-point 75 :   0.4000 0.3333 0.0000  plane waves:   12618
 k-point 76 :   0.4667 0.3333 0.0000  plane waves:   12630
 k-point 77 :  -0.4667 0.3333 0.0000  plane waves:   12633
 k-point 78 :  -0.4000 0.3333 0.0000  plane waves:   12619
 k-point 79 :  -0.3333 0.3333 0.0000  plane waves:   12602
 k-point 80 :  -0.2667 0.3333 0.0000  plane waves:   12619
 k-point 81 :  -0.2000 0.3333 0.0000  plane waves:   12611
 k-point 82 :  -0.1333 0.3333 0.0000  plane waves:   12599
 k-point 83 :  -0.0667 0.3333 0.0000  plane waves:   12589
 k-point 84 :  -0.0000 0.4000 0.0000  plane waves:   12582
 k-point 85 :   0.0667 0.4000 0.0000  plane waves:   12573
 k-point 86 :   0.1333 0.4000 0.0000  plane waves:   12590
 k-point 87 :   0.2000 0.4000 0.0000  plane waves:   12602
 k-point 88 :   0.2667 0.4000 0.0000  plane waves:   12610
 k-point 89 :   0.3333 0.4000 0.0000  plane waves:   12609
 k-point 90 :   0.4000 0.4000 0.0000  plane waves:   12611
 k-point 91 :   0.4667 0.4000 0.0000  plane waves:   12606
 k-point 92 :  -0.4667 0.4000 0.0000  plane waves:   12610
 k-point 93 :  -0.4000 0.4000 0.0000  plane waves:   12607
 k-point 94 :  -0.3333 0.4000 0.0000  plane waves:   12608
 k-point 95 :  -0.2667 0.4000 0.0000  plane waves:   12611
 k-point 96 :  -0.2000 0.4000 0.0000  plane waves:   12587
 k-point 97 :  -0.1333 0.4000 0.0000  plane waves:   12597
 k-point 98 :  -0.0667 0.4000 0.0000  plane waves:   12579
 k-point 99 :  -0.0000 0.4667 0.0000  plane waves:   12601
 k-point ** :   0.0667 0.4667 0.0000  plane waves:   12570
 k-point ** :   0.1333 0.4667 0.0000  plane waves:   12591
 k-point ** :   0.2000 0.4667 0.0000  plane waves:   12590
 k-point ** :   0.2667 0.4667 0.0000  plane waves:   12589
 k-point ** :   0.3333 0.4667 0.0000  plane waves:   12598
 k-point ** :   0.4000 0.4667 0.0000  plane waves:   12594
 k-point ** :   0.4667 0.4667 0.0000  plane waves:   12593
 k-point ** :  -0.4667 0.4667 0.0000  plane waves:   12600
 k-point ** :  -0.4000 0.4667 0.0000  plane waves:   12602
 k-point ** :  -0.3333 0.4667 0.0000  plane waves:   12583
 k-point ** :  -0.2667 0.4667 0.0000  plane waves:   12602
 k-point ** :  -0.2000 0.4667 0.0000  plane waves:   12605
 k-point ** :  -0.1333 0.4667 0.0000  plane waves:   12590
 k-point ** :  -0.0667 0.4667 0.0000  plane waves:   12590

 maximum and minimum number of plane-waves per node :       551      502

 maximum number of plane-waves:     12670
 maximum index in each direction: 
   IXMAX=    9   IYMAX=    8   IZMAX=   39
   IXMIN=   -9   IYMIN=   -9   IZMIN=  -39


 parallel 3D FFT for wavefunctions:
    minimum data exchange during FFTs selected (reduces bandwidth)
 parallel 3D FFT for charge:
    minimum data exchange during FFTs selected (reduces bandwidth)


 total amount of memory used by VASP MPI-rank0    63660. kBytes
=======================================================================

   base      :      30000. kBytes
   nonl-proj :      12679. kBytes
   fftplans  :       2678. kBytes
   grid      :       4349. kBytes
   one-center:          8. kBytes
   wavefun   :      13946. kBytes
 
     INWAV:  cpu time    0.0000: real time    0.0000
 Broyden mixing: mesh for mixing (old mesh)
   NGX = 17   NGY = 17   NGZ = 79
  (NGX  = 72   NGY  = 72   NGZ  =320)
  gives a total of  22831 points

 initial charge density was supplied:
 charge density of overlapping atoms calculated
 number of electron      20.0000000 magnetization 
 keeping initial charge density in first step


--------------------------------------------------------------------------------------------------------


 Maximum index for augmentation-charges         2214 (set IRDMAX)


--------------------------------------------------------------------------------------------------------


 First call to EWALD:  gamma=   0.245
 Maximum number of real-space cells 4x 4x 1
 Maximum number of reciprocal cells 2x 2x 7

    FEWALD:  cpu time    0.0011: real time    0.0041


--------------------------------------- Iteration      1(   1)  ---------------------------------------


    POTLOK:  cpu time    0.0659: real time    0.2104
    SETDIJ:  cpu time    0.0097: real time    0.0132
     EDDAV:  cpu time    2.2212: real time    2.2396
       DOS:  cpu time    0.0043: real time    0.0046
    --------------------------------------------
      LOOP:  cpu time    2.3011: real time    2.4678

 eigenvalue-minimisations  :  3164
 total energy-change (2. order) : 0.1452485E+03  (-0.6242094E+03)
 number of electron      20.0000000 magnetization 
 augmentation part       20.0000000 magnetization 

 Free energy of the ion-electron system (eV)
  ---------------------------------------------------
  alpha Z        PSCENC =         9.45699169
  Ewald energy   TEWEN  =      1144.74430178
  -Hartree energ DENC   =     -1746.53522024
  -exchange      EXHF   =         0.00000000
  -V(xc)+E(xc)   XCENC  =      -238.62144114
  PAW double counting   =       799.43158084     -524.17639913
  entropy T*S    EENTRO =        -0.01233681
  eigenvalues    EBANDS =        -1.46682560
  atomic energy  EATOM  =       702.42789710
  Solvation  Ediel_sol  =         0.00000000
  ---------------------------------------------------
  free energy    TOTEN  =       145.24854850 eV

  energy without entropy =      145.26088531  energy(sigma->0) =      145.25471690


--------------------------------------------------------------------------------------------------------




--------------------------------------- Iteration      1(   2)  ---------------------------------------


     EDDAV:  cpu time    3.2031: real time    3.2057
       DOS:  cpu time    0.0042: real time    0.0042
    --------------------------------------------
      LOOP:  cpu time    3.2073: real time    3.2098

 eigenvalue-minimisations  :  5208
 total energy-change (2. order) :-0.1403823E+03  (-0.1361442E+03)
 number of electron      20.0000000 magnetization 
 augmentation part       20.0000000 magnetization 

 Free energy of the ion-electron system (eV)
  ---------------------------------------------------
  alpha Z        PSCENC =         9.45699169
  Ewald energy   TEWEN  =      1144.74430178
  -Hartree energ DENC   =     -1746.53522024
  -exchange      EXHF   =         0.00000000
  -V(xc)+E(xc)   XCENC  =      -238.62144114
  PAW double counting   =       799.43158084     -524.17639913
  entropy T*S    EENTRO =        -0.00082805
  eigenvalues    EBANDS =      -141.86062039
  atomic energy  EATOM  =       702.42789710
  Solvation  Ediel_sol  =         0.00000000
  ---------------------------------------------------
  free energy    TOTEN  =         4.86626246 eV

  energy without entropy =        4.86709051  energy(sigma->0) =        4.86667649


--------------------------------------------------------------------------------------------------------




--------------------------------------- Iteration      1(   3)  ---------------------------------------


     EDDAV:  cpu time    2.5878: real time    2.5898
       DOS:  cpu time    0.0029: real time    0.0029
    --------------------------------------------
      LOOP:  cpu time    2.5908: real time    2.5927

 eigenvalue-minimisations  :  4024
 total energy-change (2. order) :-0.2083705E+02  (-0.2067558E+02)
 number of electron      20.0000000 magnetization 
 augmentation part       20.0000000 magnetization 

 Free energy of the ion-electron system (eV)
  ---------------------------------------------------
  alpha Z        PSCENC =         9.45699169
  Ewald energy   TEWEN  =      1144.74430178
  -Hartree energ DENC   =     -1746.53522024
  -exchange      EXHF   =         0.00000000
  -V(xc)+E(xc)   XCENC  =      -238.62144114
  PAW double counting   =       799.43158084     -524.17639913
  entropy T*S    EENTRO =        -0.00000000
  eigenvalues    EBANDS =      -162.69849563
  atomic energy  EATOM  =       702.42789710
  Solvation  Ediel_sol  =         0.00000000
  ---------------------------------------------------
  free energy    TOTEN  =       -15.97078472 eV

  energy without entropy =      -15.97078472  energy(sigma->0) =      -15.97078472


--------------------------------------------------------------------------------------------------------




--------------------------------------- Iteration      1(   4)  ---------------------------------------


     EDDAV:  cpu time    2.8011: real time    2.8033
       DOS:  cpu time    0.0030: real time    0.0030
    --------------------------------------------
      LOOP:  cpu time    2.8041: real time    2.8063

 eigenvalue-minimisations  :  4508
 total energy-change (2. order) :-0.8124261E+00  (-0.8101848E+00)
 number of electron      20.0000000 magnetization 
 augmentation part       20.0000000 magnetization 

 Free energy of the ion-electron system (eV)
  ---------------------------------------------------
  alpha Z        PSCENC =         9.45699169
  Ewald energy   TEWEN  =      1144.74430178
  -Hartree energ DENC   =     -1746.53522024
  -exchange      EXHF   =         0.00000000
  -V(xc)+E(xc)   XCENC  =      -238.62144114
  PAW double counting   =       799.43158084     -524.17639913
  entropy T*S    EENTRO =        -0.00000000
  eigenvalues    EBANDS =      -163.51092172
  atomic energy  EATOM  =       702.42789710
  Solvation  Ediel_sol  =         0.00000000
  ---------------------------------------------------
  free energy    TOTEN  =       -16.78321081 eV

  energy without entropy =      -16.78321081  energy(sigma->0) =      -16.78321081


--------------------------------------------------------------------------------------------------------




--------------------------------------- Iteration      1(   5)  ---------------------------------------


     EDDAV:  cpu time    2.6527: real time    2.6549
       DOS:  cpu time    0.0032: real time    0.0032
    CHARGE:  cpu time    0.1984: real time    0.1986
    MIXING:  cpu time    0.0027: real time    0.0028
    --------------------------------------------
      LOOP:  cpu time    2.8569: real time    2.8596

 eigenvalue-minimisations  :  4192
 total energy-change (2. order) :-0.1735597E-01  (-0.1734038E-01)
 number of electron      20.0000000 magnetization 
 augmentation part       -4.5217795 magnetization 

 Broyden mixing:
  rms(total) = 0.44921E+00    rms(broyden)= 0.44921E+00
  rms(prec ) = 0.49049E+00
  weight for this iteration     100.00

 Free energy of the ion-electron system (eV)
  ---------------------------------------------------
  alpha Z        PSCENC =         9.45699169
  Ewald energy   TEWEN  =      1144.74430178
  -Hartree energ DENC   =     -1746.53522024
  -exchange      EXHF   =         0.00000000
  -V(xc)+E(xc)   XCENC  =      -238.62144114
  PAW double counting   =       799.43158084     -524.17639913
  entropy T*S    EENTRO =        -0.00000000
  eigenvalues    EBANDS =      -163.52827769
  atomic energy  EATOM  =       702.42789710
  Solvation  Ediel_sol  =         0.00000000
  ---------------------------------------------------
  free energy    TOTEN  =       -16.80056678 eV

  energy without entropy =      -16.80056678  energy(sigma->0) =      -16.80056678


--------------------------------------------------------------------------------------------------------




--------------------------------------- Iteration      1(   6)  ---------------------------------------


    POTLOK:  cpu time    0.0365: real time    0.0365
    SETDIJ:  cpu time    0.0035: real time    0.0041
     EDDAV:  cpu time    2.5423: real time    2.5442
       DOS:  cpu time    0.0030: real time    0.0030
    CHARGE:  cpu time    0.1934: real time    0.1938
    MIXING:  cpu time    0.0019: real time    0.0027
    --------------------------------------------
      LOOP:  cpu time    2.7805: real time    2.7844

 eigenvalue-minimisations  :  3930
 total energy-change (2. order) : 0.4969937E+00  (-0.1276413E+00)
 number of electron      20.0000000 magnetization 
 augmentation part       -4.4888835 magnetization 

 Broyden mixing:
  rms(total) = 0.27517E+00    rms(broyden)= 0.27517E+00
  rms(prec ) = 0.28435E+00
  weight for this iteration     100.00

 eigenvalues of (default mixing * dielectric matrix)
  average eigenvalue GAMMA=   1.7793
  1.7793

 Free energy of the ion-electron system (eV)
  ---------------------------------------------------
  alpha Z        PSCENC =         9.45699169
  Ewald energy   TEWEN  =      1144.74430178
  -Hartree energ DENC   =     -1754.43909572
  -exchange      EXHF   =         0.00000000
  -V(xc)+E(xc)   XCENC  =      -238.13680480
  PAW double counting   =       922.97345854     -647.89757716
  entropy T*S    EENTRO =        -0.00000000
  eigenvalues    EBANDS =      -155.43274455
  atomic energy  EATOM  =       702.42789710
  Solvation  Ediel_sol  =         0.00000000
  ---------------------------------------------------
  free energy    TOTEN  =       -16.30357313 eV

  energy without entropy =      -16.30357313  energy(sigma->0) =      -16.30357313


--------------------------------------------------------------------------------------------------------




--------------------------------------- Iteration      1(   7)  ---------------------------------------


    POTLOK:  cpu time    0.0372: real time    0.0372
    SETDIJ:  cpu time    0.0032: real time    0.0032
     EDDAV:  cpu time    2.5742: real time    2.5761
       DOS:  cpu time    0.0031: real time    0.0031
    CHARGE:  cpu time    0.1907: real time    0.1909
    MIXING:  cpu time    0.0018: real time    0.0019
    --------------------------------------------
      LOOP:  cpu time    2.8101: real time    2.8124

 eigenvalue-minimisations  :  4092
 total energy-change (2. order) : 0.2681689E-01  (-0.3093661E-01)
 number of electron      20.0000000 magnetization 
 augmentation part       -4.4811381 magnetization 

 Broyden mixing:
  rms(total) = 0.10568E+00    rms(broyden)= 0.10568E+00
  rms(prec ) = 0.11106E+00
  weight for this iteration     100.00

 eigenvalues of (default mixing * dielectric matrix)
  average eigenvalue GAMMA=   1.7276
  1.3652  2.0900

 Free energy of the ion-electron system (eV)
  ---------------------------------------------------
  alpha Z        PSCENC =         9.45699169
  Ewald energy   TEWEN  =      1144.74430178
  -Hartree energ DENC   =     -1759.36774759
  -exchange      EXHF   =         0.00000000
  -V(xc)+E(xc)   XCENC  =      -237.81759331
  PAW double counting   =      1061.14772269     -786.20586596
  entropy T*S    EENTRO =        -0.00000000
  eigenvalues    EBANDS =      -150.66246263
  atomic energy  EATOM  =       702.42789710
  Solvation  Ediel_sol  =         0.00000000
  ---------------------------------------------------
  free energy    TOTEN  =       -16.27675623 eV

  energy without entropy =      -16.27675623  energy(sigma->0) =      -16.27675623


--------------------------------------------------------------------------------------------------------




--------------------------------------- Iteration      1(   8)  ---------------------------------------


    POTLOK:  cpu time    0.0365: real time    0.0365
    SETDIJ:  cpu time    0.0032: real time    0.0032
     EDDAV:  cpu time    2.7485: real time    2.7506
       DOS:  cpu time    0.0031: real time    0.0031
    CHARGE:  cpu time    0.1918: real time    0.1919
    MIXING:  cpu time    0.0018: real time    0.0018
    --------------------------------------------
      LOOP:  cpu time    2.9848: real time    2.9871

 eigenvalue-minimisations  :  4442
 total energy-change (2. order) : 0.9450159E-02  (-0.3727914E-02)
 number of electron      20.0000000 magnetization 
 augmentation part       -4.4853231 magnetization 

 Broyden mixing:
  rms(total) = 0.20307E-01    rms(broyden)= 0.20307E-01
  rms(prec ) = 0.27737E-01
  weight for this iteration     100.00

 eigenvalues of (default mixing * dielectric matrix)
  average eigenvalue GAMMA=   1.6987
  2.5191  1.2885  1.2885

 Free energy of the ion-electron system (eV)
  ---------------------------------------------------
  alpha Z        PSCENC =         9.45699169
  Ewald energy   TEWEN  =      1144.74430178
  -Hartree energ DENC   =     -1761.09722882
  -exchange      EXHF   =         0.00000000
  -V(xc)+E(xc)   XCENC  =      -237.73634213
  PAW double counting   =      1127.67319445     -852.76997010
  entropy T*S    EENTRO =        -0.00000000
  eigenvalues    EBANDS =      -148.96615005
  atomic energy  EATOM  =       702.42789710
  Solvation  Ediel_sol  =         0.00000000
  ---------------------------------------------------
  free energy    TOTEN  =       -16.26730607 eV

  energy without entropy =      -16.26730607  energy(sigma->0) =      -16.26730607


--------------------------------------------------------------------------------------------------------




--------------------------------------- Iteration      1(   9)  ---------------------------------------


    POTLOK:  cpu time    0.0373: real time    0.0374
    SETDIJ:  cpu time    0.0032: real time    0.0032
     EDDAV:  cpu time    2.7447: real time    2.7491
       DOS:  cpu time    0.0031: real time    0.0031
    CHARGE:  cpu time    0.1923: real time    0.1924
    MIXING:  cpu time    0.0018: real time    0.0018
    --------------------------------------------
      LOOP:  cpu time    2.9824: real time    2.9869

 eigenvalue-minimisations  :  4352
 total energy-change (2. order) : 0.3682248E-02  (-0.6447626E-03)
 number of electron      20.0000000 magnetization 
 augmentation part       -4.4834840 magnetization 

 Broyden mixing:
  rms(total) = 0.10016E-01    rms(broyden)= 0.10016E-01
  rms(prec ) = 0.15614E-01
  weight for this iteration     100.00

 eigenvalues of (default mixing * dielectric matrix)
  average eigenvalue GAMMA=   1.7095
  2.2290  2.2290  1.1900  1.1900

 Free energy of the ion-electron system (eV)
  ---------------------------------------------------
  alpha Z        PSCENC =         9.45699169
  Ewald energy   TEWEN  =      1144.74430178
  -Hartree energ DENC   =     -1763.04726205
  -exchange      EXHF   =         0.00000000
  -V(xc)+E(xc)   XCENC  =      -237.66404776
  PAW double counting   =      1145.32687325     -870.43510590
  entropy T*S    EENTRO =        -0.00000000
  eigenvalues    EBANDS =      -147.07327193
  atomic energy  EATOM  =       702.42789710
  Solvation  Ediel_sol  =         0.00000000
  ---------------------------------------------------
  free energy    TOTEN  =       -16.26362382 eV

  energy without entropy =      -16.26362382  energy(sigma->0) =      -16.26362382


--------------------------------------------------------------------------------------------------------




--------------------------------------- Iteration      1(  10)  ---------------------------------------


    POTLOK:  cpu time    0.0370: real time    0.0370
    SETDIJ:  cpu time    0.0033: real time    0.0037
     EDDAV:  cpu time    2.7297: real time    2.7319
       DOS:  cpu time    0.0030: real time    0.0030
    CHARGE:  cpu time    0.1905: real time    0.1907
    MIXING:  cpu time    0.0019: real time    0.0019
    --------------------------------------------
      LOOP:  cpu time    2.9654: real time    2.9682

 eigenvalue-minimisations  :  4364
 total energy-change (2. order) : 0.1295167E-02  (-0.1214216E-03)
 number of electron      20.0000000 magnetization 
 augmentation part       -4.4822015 magnetization 

 Broyden mixing:
  rms(total) = 0.50665E-02    rms(broyden)= 0.50665E-02
  rms(prec ) = 0.93439E-02
  weight for this iteration     100.00

 eigenvalues of (default mixing * dielectric matrix)
  average eigenvalue GAMMA=   1.8577
  3.3210  2.5945  1.2332  1.2332  0.9068

 Free energy of the ion-electron system (eV)
  ---------------------------------------------------
  alpha Z        PSCENC =         9.45699169
  Ewald energy   TEWEN  =      1144.74430178
  -Hartree energ DENC   =     -1764.32614285
  -exchange      EXHF   =         0.00000000
  -V(xc)+E(xc)   XCENC  =      -237.65218623
  PAW double counting   =      1135.16520806     -860.26366677
  entropy T*S    EENTRO =        -0.00000000
  eigenvalues    EBANDS =      -145.81473144
  atomic energy  EATOM  =       702.42789710
  Solvation  Ediel_sol  =         0.00000000
  ---------------------------------------------------
  free energy    TOTEN  =       -16.26232866 eV

  energy without entropy =      -16.26232866  energy(sigma->0) =      -16.26232866


--------------------------------------------------------------------------------------------------------




--------------------------------------- Iteration      1(  11)  ---------------------------------------


    POTLOK:  cpu time    0.0372: real time    0.0372
    SETDIJ:  cpu time    0.0031: real time    0.0031
     EDDAV:  cpu time    2.7224: real time    2.7245
       DOS:  cpu time    0.0031: real time    0.0031
    CHARGE:  cpu time    0.1925: real time    0.1927
    MIXING:  cpu time    0.0017: real time    0.0017
    --------------------------------------------
      LOOP:  cpu time    2.9600: real time    2.9625

 eigenvalue-minimisations  :  4334
 total energy-change (2. order) : 0.7350767E-03  (-0.1232840E-03)
 number of electron      20.0000000 magnetization 
 augmentation part       -4.4808421 magnetization 

 Broyden mixing:
  rms(total) = 0.32110E-02    rms(broyden)= 0.32110E-02
  rms(prec ) = 0.49748E-02
  weight for this iteration     100.00

 eigenvalues of (default mixing * dielectric matrix)
  average eigenvalue GAMMA=   1.8285
  3.3908  2.3630  1.9503  1.1896  1.1896  0.8874

 Free energy of the ion-electron system (eV)
  ---------------------------------------------------
  alpha Z        PSCENC =         9.45699169
  Ewald energy   TEWEN  =      1144.74430178
  -Hartree energ DENC   =     -1765.90788744
  -exchange      EXHF   =         0.00000000
  -V(xc)+E(xc)   XCENC  =      -237.62103138
  PAW double counting   =      1136.55177621     -861.64916468
  entropy T*S    EENTRO =        -0.00000000
  eigenvalues    EBANDS =      -144.26447686
  atomic energy  EATOM  =       702.42789710
  Solvation  Ediel_sol  =         0.00000000
  ---------------------------------------------------
  free energy    TOTEN  =       -16.26159358 eV

  energy without entropy =      -16.26159358  energy(sigma->0) =      -16.26159358


--------------------------------------------------------------------------------------------------------




--------------------------------------- Iteration      1(  12)  ---------------------------------------


    POTLOK:  cpu time    0.0381: real time    0.0381
    SETDIJ:  cpu time    0.0033: real time    0.0033
     EDDAV:  cpu time    2.3602: real time    2.3621
       DOS:  cpu time    0.0031: real time    0.0031
    CHARGE:  cpu time    0.1910: real time    0.1912
    MIXING:  cpu time    0.0020: real time    0.0020
    --------------------------------------------
      LOOP:  cpu time    2.5975: real time    2.5997

 eigenvalue-minimisations  :  3578
 total energy-change (2. order) :-0.8159136E-03  (-0.2804655E-04)
 number of electron      20.0000000 magnetization 
 augmentation part       -4.4802116 magnetization 

 Broyden mixing:
  rms(total) = 0.17579E-02    rms(broyden)= 0.17579E-02
  rms(prec ) = 0.27580E-02
  weight for this iteration     100.00

 eigenvalues of (default mixing * dielectric matrix)
  average eigenvalue GAMMA=   2.0653
  4.6154  3.0665  2.4992  1.2019  1.2019  1.0247  0.8476

 Free energy of the ion-electron system (eV)
  ---------------------------------------------------
  alpha Z        PSCENC =         9.45699169
  Ewald energy   TEWEN  =      1144.74430178
  -Hartree energ DENC   =     -1766.55434165
  -exchange      EXHF   =         0.00000000
  -V(xc)+E(xc)   XCENC  =      -237.61148625
  PAW double counting   =      1138.21372944     -863.31356379
  entropy T*S    EENTRO =        -0.00000000
  eigenvalues    EBANDS =      -143.62593781
  atomic energy  EATOM  =       702.42789710
  Solvation  Ediel_sol  =         0.00000000
  ---------------------------------------------------
  free energy    TOTEN  =       -16.26240949 eV

  energy without entropy =      -16.26240949  energy(sigma->0) =      -16.26240949


--------------------------------------------------------------------------------------------------------




--------------------------------------- Iteration      1(  13)  ---------------------------------------


    POTLOK:  cpu time    0.0373: real time    0.0374
    SETDIJ:  cpu time    0.0032: real time    0.0032
     EDDAV:  cpu time    2.4405: real time    2.4424
       DOS:  cpu time    0.0031: real time    0.0031
    CHARGE:  cpu time    0.1927: real time    0.1928
    MIXING:  cpu time    0.0020: real time    0.0020
    --------------------------------------------
      LOOP:  cpu time    2.6789: real time    2.6810

 eigenvalue-minimisations  :  3746
 total energy-change (2. order) :-0.4324400E-03  (-0.7819009E-05)
 number of electron      20.0000000 magnetization 
 augmentation part       -4.4800006 magnetization 

 Broyden mixing:
  rms(total) = 0.11040E-02    rms(broyden)= 0.11040E-02
  rms(prec ) = 0.14876E-02
  weight for this iteration     100.00

 eigenvalues of (default mixing * dielectric matrix)
  average eigenvalue GAMMA=   2.2397
  5.6655  3.2896  2.4926  2.1759  1.1595  1.1595  1.0632  0.9120

 Free energy of the ion-electron system (eV)
  ---------------------------------------------------
  alpha Z        PSCENC =         9.45699169
  Ewald energy   TEWEN  =      1144.74430178
  -Hartree energ DENC   =     -1766.96880221
  -exchange      EXHF   =         0.00000000
  -V(xc)+E(xc)   XCENC  =      -237.60995500
  PAW double counting   =      1137.15216675     -862.25090655
  entropy T*S    EENTRO =        -0.00000000
  eigenvalues    EBANDS =      -143.21453549
  atomic energy  EATOM  =       702.42789710
  Solvation  Ediel_sol  =         0.00000000
  ---------------------------------------------------
  free energy    TOTEN  =       -16.26284193 eV

  energy without entropy =      -16.26284193  energy(sigma->0) =      -16.26284193


--------------------------------------------------------------------------------------------------------




--------------------------------------- Iteration      1(  14)  ---------------------------------------


    POTLOK:  cpu time    0.0386: real time    0.0387
    SETDIJ:  cpu time    0.0031: real time    0.0031
     EDDAV:  cpu time    2.5020: real time    2.5039
       DOS:  cpu time    0.0031: real time    0.0031
    CHARGE:  cpu time    0.1909: real time    0.1911
    MIXING:  cpu time    0.0020: real time    0.0020
    --------------------------------------------
      LOOP:  cpu time    2.7398: real time    2.7419

 eigenvalue-minimisations  :  3896
 total energy-change (2. order) :-0.2682989E-03  (-0.4121203E-05)
 number of electron      20.0000000 magnetization 
 augmentation part       -4.4799720 magnetization 

 Broyden mixing:
  rms(total) = 0.39660E-03    rms(broyden)= 0.39660E-03
  rms(prec ) = 0.61538E-03
  weight for this iteration     100.00

 eigenvalues of (default mixing * dielectric matrix)
  average eigenvalue GAMMA=   2.2466
  6.7527  3.0715  2.5374  2.5374  1.1829  1.1829  1.0213  0.9665  0.9665

 Free energy of the ion-electron system (eV)
  ---------------------------------------------------
  alpha Z        PSCENC =         9.45699169
  Ewald energy   TEWEN  =      1144.74430178
  -Hartree energ DENC   =     -1767.17731611
  -exchange      EXHF   =         0.00000000
  -V(xc)+E(xc)   XCENC  =      -237.60985815
  PAW double counting   =      1137.38433444     -862.48254327
  entropy T*S    EENTRO =        -0.00000000
  eigenvalues    EBANDS =      -143.00691772
  atomic energy  EATOM  =       702.42789710
  Solvation  Ediel_sol  =         0.00000000
  ---------------------------------------------------
  free energy    TOTEN  =       -16.26311023 eV

  energy without entropy =      -16.26311023  energy(sigma->0) =      -16.26311023


--------------------------------------------------------------------------------------------------------




--------------------------------------- Iteration      1(  15)  ---------------------------------------


    POTLOK:  cpu time    0.0382: real time    0.0383
    SETDIJ:  cpu time    0.0031: real time    0.0031
     EDDAV:  cpu time    2.5576: real time    2.5595
       DOS:  cpu time    0.0030: real time    0.0030
    CHARGE:  cpu time    0.1981: real time    0.1988
    MIXING:  cpu time    0.0021: real time    0.0021
    --------------------------------------------
      LOOP:  cpu time    2.8023: real time    2.8049

 eigenvalue-minimisations  :  3862
 total energy-change (2. order) :-0.5723263E-04  (-0.2016590E-06)
 number of electron      20.0000000 magnetization 
 augmentation part       -4.4799889 magnetization 

 Broyden mixing:
  rms(total) = 0.32167E-03    rms(broyden)= 0.32167E-03
  rms(prec ) = 0.49564E-03
  weight for this iteration     100.00

 eigenvalues of (default mixing * dielectric matrix)
  average eigenvalue GAMMA=   2.3574
  6.5571  4.2761  2.7008  2.7008  1.9799  1.1421  1.1421  1.2016  0.9366  0.9366

 Free energy of the ion-electron system (eV)
  ---------------------------------------------------
  alpha Z        PSCENC =         9.45699169
  Ewald energy   TEWEN  =      1144.74430178
  -Hartree energ DENC   =     -1767.19161355
  -exchange      EXHF   =         0.00000000
  -V(xc)+E(xc)   XCENC  =      -237.61023442
  PAW double counting   =      1137.18931434     -862.28738530
  entropy T*S    EENTRO =        -0.00000000
  eigenvalues    EBANDS =      -142.99243911
  atomic energy  EATOM  =       702.42789710
  Solvation  Ediel_sol  =         0.00000000
  ---------------------------------------------------
  free energy    TOTEN  =       -16.26316747 eV

  energy without entropy =      -16.26316747  energy(sigma->0) =      -16.26316747


--------------------------------------------------------------------------------------------------------




--------------------------------------- Iteration      1(  16)  ---------------------------------------


    POTLOK:  cpu time    0.0377: real time    0.0378
    SETDIJ:  cpu time    0.0032: real time    0.0037
     EDDAV:  cpu time    2.3580: real time    2.3598
       DOS:  cpu time    0.0032: real time    0.0032
    CHARGE:  cpu time    0.1918: real time    0.1920
    MIXING:  cpu time    0.0024: real time    0.0024
    --------------------------------------------
      LOOP:  cpu time    2.5963: real time    2.5989

 eigenvalue-minimisations  :  3528
 total energy-change (2. order) :-0.4527818E-04  (-0.8267224E-06)
 number of electron      20.0000000 magnetization 
[...]
  band No.  band energies     occupation 
      1     -14.5685      2.00000
      2     -14.3240      2.00000
      3      -8.8575      2.00000
      4      -8.6283      2.00000
      5      -6.0669      2.00000
      6      -5.1219      2.00000
      7      -4.8598      2.00000
      8      -4.1076      2.00000
      9      -3.8423      2.00000
     10      -3.0984      2.00000
     11       0.0963      0.00000
     12       1.0465      0.00000
     13       1.1246      0.00000
     14       1.5437      0.00000

 k-point    96 :      -0.2000    0.4000    0.0000
  band No.  band energies     occupation 
      1     -14.6367      2.00000
      2     -14.3441      2.00000
      3      -9.0132      2.00000
      4      -8.7263      2.00000
      5      -5.6468      2.00000
      6      -4.8422      2.00000
      7      -4.5837      2.00000
      8      -3.9779      2.00000
      9      -3.4964      2.00000
     10      -2.7268      2.00000
     11      -0.3742      0.00000
     12       0.5089      0.00000
     13       0.6947      0.00000
     14       1.1955      0.00000

 k-point    97 :      -0.1333    0.4000    0.0000
  band No.  band energies     occupation 
      1     -14.6916      2.00000
      2     -14.3644      2.00000
      3      -9.1339      2.00000
      4      -8.8062      2.00000
      5      -5.1465      2.00000
      6      -4.7835      2.00000
      7      -4.1702      2.00000
      8      -3.9343      2.00000
      9      -2.9589      2.00000
     10      -2.5105      2.00000
     11      -0.6420      0.00000
     12      -0.2083      0.00000
     13       0.4819      0.00000
     14       0.7496      0.00000

 k-point    98 :      -0.0667    0.4000    0.0000
  band No.  band energies     occupation 
      1     -14.7273      2.00000
      2     -14.3788      2.00000
      3      -9.2089      2.00000
      4      -8.8573      2.00000
      5      -4.7867      2.00000
      6      -4.6278      2.00000
      7      -3.9613      2.00000
      8      -3.7734      2.00000
      9      -2.6807      2.00000
     10      -2.4128      2.00000
     11      -0.7894      0.00000
     12      -0.3942      0.00000
     13       0.1999      0.00000
     14       0.3664      0.00000

 k-point    99 :      -0.0000    0.4667    0.0000
  band No.  band energies     occupation 
      1     -14.5972      2.00000
      2     -14.4744      2.00000
      3      -9.2163      2.00000
      4      -9.0929      2.00000
      5      -4.5522      2.00000
      6      -4.3414      2.00000
      7      -3.8940      2.00000
      8      -3.7045      2.00000
      9      -2.6097      2.00000
     10      -2.2825      2.00000
     11      -0.9241      0.00000
     12      -0.4976      0.00000
     13      -0.0806      0.00000
     14       0.1163      0.00000

 k-point   100 :       0.0667    0.4667    0.0000
  band No.  band energies     occupation 
      1     -14.5885      2.00000
      2     -14.4659      2.00000
      3      -9.1885      2.00000
      4      -9.0681      2.00000
      5      -4.5711      2.00000
      6      -4.4505      2.00000
      7      -4.0321      2.00000
      8      -3.9102      2.00000
      9      -2.5474      2.00000
     10      -2.4227      2.00000
     11      -0.8276      0.00000
     12      -0.7188      0.00000
     13       0.2637      0.00000
     14       0.5768      0.00000

 k-point   101 :       0.1333    0.4667    0.0000
  band No.  band energies     occupation 
      1     -14.5614      2.00000
      2     -14.4435      2.00000
      3      -9.1077      2.00000
      4      -8.9965      2.00000
      5      -4.8569      2.00000
      6      -4.6922      2.00000
      7      -4.2590      2.00000
      8      -4.1442      2.00000
      9      -2.8744      2.00000
     10      -2.6936      2.00000
     11      -0.5860      0.00000
     12      -0.3486      0.00000
     13       0.7777      0.00000
     14       0.8616      0.00000

 k-point   102 :       0.2000    0.4667    0.0000
  band No.  band energies     occupation 
      1     -14.5195      2.00000
      2     -14.4111      2.00000
      3      -8.9776      2.00000
      4      -8.8829      2.00000
      5      -5.3634      2.00000
      6      -5.0588      2.00000
      7      -4.4428      2.00000
      8      -4.2267      2.00000
      9      -3.3779      2.00000
     10      -3.0851      2.00000
     11      -0.0748      0.00000
     12       0.2982      0.00000
     13       0.9898      0.00000
     14       1.2203      0.00000

 k-point   103 :       0.2667    0.4667    0.0000
  band No.  band energies     occupation 
      1     -14.4685      2.00000
      2     -14.3745      2.00000
      3      -8.8064      2.00000
      4      -8.7365      2.00000
      5      -5.8334      2.00000
      6      -5.4983      2.00000
      7      -4.6387      2.00000
      8      -4.4024      2.00000
      9      -3.7152      2.00000
     10      -3.4243      2.00000
     11       0.4446      0.00000
     12       0.8178      0.00000
     13       1.3665      0.00000
     14       1.6240      0.00000

 k-point   104 :       0.3333    0.4667    0.0000
  band No.  band energies     occupation 
      1     -14.4158      2.00000
      2     -14.3411      2.00000
      3      -8.6108      2.00000
      4      -8.5739      2.00000
      5      -6.2188      2.00000
      6      -5.8961      2.00000
      7      -4.9341      2.00000
      8      -4.6986      2.00000
      9      -3.8258      2.00000
     10      -3.5957      2.00000
     11       0.8027      0.00000
     12       1.0810      0.00000
     13       1.8980      0.00000
     14       2.1921      0.00000

 k-point   105 :       0.4000    0.4667    0.0000
  band No.  band energies     occupation 
      1     -14.3695      2.00000
      2     -14.3183      2.00000
      3      -8.4242      2.00000
      4      -8.4231      2.00000
      5      -6.4850      2.00000
      6      -6.2246      2.00000
      7      -5.1876      2.00000
      8      -5.0075      2.00000
      9      -3.8229      2.00000
     10      -3.6663      2.00000
     11       1.0433      0.00000
     12       1.2060      0.00000
     13       2.3835      0.00000
     14       2.6432      0.00000

 k-point   106 :       0.4667    0.4667    0.0000
  band No.  band energies     occupation 
      1     -14.3369      2.00000
      2     -14.3124      2.00000
      3      -8.3272      2.00000
      4      -8.3035      2.00000
      5      -6.5903      2.00000
      6      -6.4559      2.00000
      7      -5.2918      2.00000
      8      -5.2249      2.00000
      9      -3.7873      2.00000
     10      -3.7083      2.00000
     11       1.1980      0.00000
     12       1.2393      0.00000
     13       2.6506      0.00000
     14       2.8061      0.00000

 k-point   107 :      -0.4667    0.4667    0.0000
  band No.  band energies     occupation 
      1     -14.3264      2.00000
      2     -14.3228      2.00000
      3      -8.3332      2.00000
      4      -8.3015      2.00000
      5      -6.5410      2.00000
      6      -6.5049      2.00000
      7      -5.2936      2.00000
      8      -5.2182      2.00000
      9      -3.7481      2.00000
     10      -3.7470      2.00000
     11       1.1817      0.00000
     12       1.2562      0.00000
     13       2.6766      0.00000
     14       2.7624      0.00000

 k-point   108 :      -0.4000    0.4667    0.0000
  band No.  band energies     occupation 
      1     -14.3594      2.00000
      2     -14.3281      2.00000
      3      -8.4488      2.00000
      4      -8.4076      2.00000
      5      -6.4498      2.00000
      6      -6.2583      2.00000
      7      -5.1935      2.00000
      8      -4.9907      2.00000
      9      -3.7840      2.00000
     10      -3.7034      2.00000
     11       1.0360      0.00000
     12       1.2147      0.00000
     13       2.4133      0.00000
     14       2.5986      0.00000

 k-point   109 :      -0.3333    0.4667    0.0000
  band No.  band energies     occupation 
      1     -14.4066      2.00000
      2     -14.3498      2.00000
      3      -8.6275      2.00000
      4      -8.5674      2.00000
      5      -6.2017      2.00000
      6      -5.9089      2.00000
      7      -4.9511      2.00000
      8      -4.6726      2.00000
      9      -3.7883      2.00000
     10      -3.6275      2.00000
     11       0.8067      0.00000
     12       1.0782      0.00000
     13       1.9256      0.00000
     14       2.1577      0.00000

 k-point   110 :      -0.2667    0.4667    0.0000
  band No.  band energies     occupation 
      1     -14.4606      2.00000
      2     -14.3819      2.00000
      3      -8.8168      2.00000
      4      -8.7353      2.00000
      5      -5.8322      2.00000
      6      -5.4922      2.00000
      7      -4.6632      2.00000
      8      -4.3773      2.00000
      9      -3.6851      2.00000
     10      -3.4403      2.00000
     11       0.4592      0.00000
     12       0.8030      0.00000
     13       1.3839      0.00000
     14       1.6046      0.00000

 k-point   111 :      -0.2000    0.4667    0.0000
  band No.  band energies     occupation 
      1     -14.5133      2.00000
      2     -14.4168      2.00000
      3      -8.9838      2.00000
      4      -8.8841      2.00000
      5      -5.3747      2.00000
      6      -5.0389      2.00000
      7      -4.4618      2.00000
      8      -4.2122      2.00000
      9      -3.3677      2.00000
     10      -3.0748      2.00000
     11      -0.0569      0.00000
     12       0.2773      0.00000
     13       0.9984      0.00000
     14       1.2134      0.00000

 k-point   112 :      -0.1333    0.4667    0.0000
  band No.  band energies     occupation 
      1     -14.5571      2.00000
      2     -14.4474      2.00000
      3      -9.1112      2.00000
      4      -8.9982      2.00000
      5      -4.8770      2.00000
      6      -4.6724      2.00000
      7      -4.2639      2.00000
      8      -4.1360      2.00000
      9      -2.8833      2.00000
     10      -2.6617      2.00000
     11      -0.5753      0.00000
     12      -0.3633      0.00000
     13       0.7836      0.00000
     14       0.8665      0.00000

 k-point   113 :      -0.0667    0.4667    0.0000
  band No.  band energies     occupation 
      1     -14.5863      2.00000
      2     -14.4679      2.00000
      3      -9.1901      2.00000
      4      -9.0692      2.00000
      5      -4.5647      2.00000
      6      -4.4680      2.00000
      7      -4.0298      2.00000
      8      -3.9007      2.00000
      9      -2.5139      2.00000
     10      -2.4416      2.00000
     11      -0.8296      0.00000
     12      -0.7117      0.00000
     13       0.2693      0.00000
     14       0.5610      0.00000


--------------------------------------------------------------------------------------------------------


 soft charge-density along one line, spin component           1
         0         1         2         3         4         5         6         7         8         9
 total charge-density along one line
 
 pseudopotential strength for first ion, spin component:           1
 30.094 -23.441   0.002  -0.089   0.037   0.003  -0.141   0.058
-23.441  28.121  -0.001   0.051  -0.021  -0.002   0.082  -0.034
  0.002  -0.001   6.333   0.000   0.000   9.798   0.000   0.000
 -0.089   0.051   0.000   6.331   0.002   0.000   9.794   0.003
  0.037  -0.021   0.000   0.002   6.333   0.000   0.003   9.797
  0.003  -0.002   9.798   0.000   0.000  15.229   0.000   0.000
 -0.141   0.082   0.000   9.794   0.003   0.000  15.222   0.004
  0.058  -0.034   0.000   0.003   9.797   0.000   0.004  15.228
  0.000  -0.000   0.008   0.000   0.000   0.012   0.000   0.001
  0.000  -0.000  -0.020   0.001   0.000  -0.031   0.001   0.000
 -0.003   0.004  -0.000  -0.023  -0.004  -0.000  -0.035  -0.007
  0.003  -0.002   0.000   0.009  -0.020   0.000   0.014  -0.031
 -0.000   0.000  -0.001  -0.000   0.009  -0.001  -0.000   0.014
 total augmentation occupancy for first ion, spin component:           1
  2.024  -0.015  -0.006   0.238  -0.094   0.001  -0.043   0.017   0.001   0.000   0.022   0.002  -0.000
 -0.015   0.009   0.002  -0.073   0.029  -0.000   0.019  -0.007  -0.000   0.000  -0.002   0.001  -0.001
 -0.006   0.002   1.507   0.002   0.000  -0.405  -0.001  -0.000   0.132  -0.043  -0.005  -0.000   0.001
  0.238  -0.073   0.002   1.842   0.001  -0.001  -0.485  -0.016  -0.000  -0.002  -0.267  -0.020  -0.001
 -0.094   0.029   0.000   0.001   1.488  -0.000  -0.016  -0.393   0.009  -0.000  -0.085  -0.046  -0.007
  0.001  -0.000  -0.405  -0.001  -0.000   0.117   0.001  -0.000  -0.035   0.012   0.001   0.000  -0.000
 -0.043   0.019  -0.001  -0.485  -0.016   0.001   0.140   0.008   0.000   0.001   0.074   0.005   0.000
  0.017  -0.007  -0.000  -0.016  -0.393  -0.000   0.008   0.113  -0.002   0.000   0.023   0.013   0.002
  0.001  -0.000   0.132  -0.000   0.009  -0.035   0.000  -0.002   0.075   0.000   0.000   0.000   0.000
  0.000   0.000  -0.043  -0.002  -0.000   0.012   0.001   0.000   0.000   0.021   0.001   0.000  -0.000
  0.022  -0.002  -0.005  -0.267  -0.085   0.001   0.074   0.023   0.000   0.001   0.077   0.006   0.002
  0.002   0.001  -0.000  -0.020  -0.046   0.000   0.005   0.013   0.000   0.000   0.006   0.022   0.001
 -0.000  -0.001   0.001  -0.001  -0.007  -0.000   0.000   0.002   0.000  -0.000   0.002   0.001   0.017


------------------------ aborting loop because EDIFF is reached ----------------------------------------


    CHARGE:  cpu time    0.1915: real time    0.1917
    FORLOC:  cpu time    0.0024: real time    0.0024
    FORNL :  cpu time    0.3225: real time    0.3227
    STRESS:  cpu time    0.6294: real time    0.6299
    FORCOR:  cpu time    0.0389: real time    0.0389
    FORHAR:  cpu time    0.0102: real time    0.0102
    MIXING:  cpu time    0.0009: real time    0.0009
    OFIELD:  cpu time    0.0000: real time    0.0000

  FORCE on cell =-STRESS in cart. coord.  units (eV):
  Direction    XX          YY          ZZ          XY          YZ          ZX
  --------------------------------------------------------------------------------------
  Alpha Z     9.45699     9.45699     9.45699
  Ewald    1597.78179  1602.80913 -2054.73577    -0.84048     0.00000     0.00000
  Hartree  1719.36419  1721.31025 -1672.40696    -0.29198    -0.00000     0.00000
  E(xc)     -77.64566   -77.66240   -78.86311    -0.00991     0.00000     0.00000
  Local   -3569.84910 -3576.18345  3472.35208     1.15383    -0.00000     0.00000
  n-local   162.46619   162.67525   167.18611     0.02303     0.00000     0.00000
  augment   -31.87517   -31.81340   -32.80307    -0.00239    -0.00000     0.00000
  Kinetic   190.16972   189.30879   189.81334    -0.13509     0.00000    -0.00000
  Fock        0.00000     0.00000     0.00000     0.00000     0.00000     0.00000
  -------------------------------------------------------------------------------------
  Total      -0.13105    -0.09885    -0.00040    -0.10300     0.00000     0.00000
  in kB      -0.55530    -0.41885    -0.00168    -0.43645     0.00000     0.00000
  external pressure =       -0.33 kB  Pullay stress =        0.00 kB


 VOLUME and BASIS-vectors are now :
 -----------------------------------------------------------------------------
  energy-cutoff  :      600.00
  volume of cell :      378.10
      direct lattice vectors                 reciprocal lattice vectors
     4.404268549  0.010955892  0.000000000     0.227053870 -0.000567635  0.000000000
     0.010731195  4.292477857  0.000000000    -0.000579520  0.232967123  0.000000000
     0.000000000  0.000000000 20.000000000     0.000000000  0.000000000  0.050000000

  length of vectors
     4.404282175  4.292491271 20.000000000     0.227054580  0.232967844  0.050000000


 FORCES acting on ions
    electron-ion (+dipol)            ewald-force                    non-local-force                 convergence-correction
 -----------------------------------------------------------------------------------------------
   0.460E+01 0.270E+00 -.144E+03   -.621E+01 -.369E+00 0.148E+03   0.160E+01 0.995E-01 -.382E+01   -.584E-04 -.543E-04 -.202E-03
   0.460E+01 0.270E+00 0.144E+03   -.621E+01 -.369E+00 -.148E+03   0.160E+01 0.995E-01 0.382E+01   -.584E-04 -.543E-04 0.202E-03
   -.572E+01 -.344E+00 -.205E+03   0.621E+01 0.369E+00 0.207E+03   -.483E+00 -.255E-01 -.204E+01   0.886E-03 0.512E-03 -.371E-03
   -.572E+01 -.344E+00 0.205E+03   0.621E+01 0.369E+00 -.207E+03   -.483E+00 -.255E-01 0.204E+01   0.886E-03 0.512E-03 0.371E-03
 -----------------------------------------------------------------------------------------------
   -.224E+01 -.149E+00 -.512E-06   0.178E-14 0.189E-14 0.000E+00   0.224E+01 0.148E+00 0.000E+00   0.166E-02 0.916E-03 -.232E-10
 
 
 POSITION                                       TOTAL-FORCE (eV/Angst)
 -----------------------------------------------------------------------------------
      2.57707      3.23484     11.37567         0.000622      0.000295      0.000035
      0.36957      1.08312      8.62433         0.000622      0.000295     -0.000035
      0.13835      1.06437     11.33875        -0.000622     -0.000295      0.000206
      2.34584      3.21609      8.66125        -0.000622     -0.000295     -0.000206
 -----------------------------------------------------------------------------------
    total drift:                                0.000361      0.000217     -0.000001


--------------------------------------------------------------------------------------------------------



  FREE ENERGIE OF THE ION-ELECTRON SYSTEM (eV)
  ---------------------------------------------------
  free  energy   TOTEN  =       -16.26382083 eV

  energy  without entropy=      -16.26382083  energy(sigma->0) =      -16.26382083
 
 d Force = 0.4867097E-06[ 0.387E-06, 0.587E-06]  d Energy = 0.5357110E-06-0.490E-07
 d Force = 0.3096633E-02[ 0.309E-02, 0.310E-02]  d Ewald  = 0.3096633E-02-0.709E-10


--------------------------------------------------------------------------------------------------------


    POTLOK:  cpu time    0.0408: real time    0.0408


--------------------------------------------------------------------------------------------------------


 Conjugate gradient step on ions:
 trial-energy change:   -0.000001  1 .order   -0.000000   -0.000001   -0.000000
  (g-gl).g = 0.923E-07      g.g   = 0.218E-06  gl.gl    = 0.460E-05
 g(Force)  = 0.218E-06   g(Stress)= 0.000E+00 ortho     = 0.420E-07
 gamma     =   0.02009
 trial     =   2.67846
 opt step  =   7.85606  (harmonic =   7.85606) maximal distance =0.00035050
 next E    =   -16.263821   (d E  =  -0.00000)


--------------------------------------------------------------------------------------------------------


  
 reached required accuracy - stopping structural energy minimisation
 writing wavefunctions
     LOOP+:  cpu time    6.8665: real time    7.2173
    4ORBIT:  cpu time    0.0000: real time    0.0000

 total amount of memory used by VASP MPI-rank0    63660. kBytes
=======================================================================

   base      :      30000. kBytes
   nonl-proj :      12679. kBytes
   fftplans  :       2678. kBytes
   grid      :       4349. kBytes
   one-center:          8. kBytes
   wavefun   :      13946. kBytes
 
  
  
 General timing and accounting informations for this job:
 ========================================================
  
                  Total CPU time used (sec):      239.417
                            User time (sec):      238.499
                          System time (sec):        0.917
                         Elapsed time (sec):      253.287
  
                   Maximum memory used (kb):      212804.
                   Average memory used (kb):           0.
  
                          Minor page faults:       247564
                          Major page faults:          133
                 Voluntary context switches:        10799
