 vasp.5.4.4.18Apr17-6-g9f103f2a35 (build Sep 16 2021 13:51:27) complex          
  
 executed on             LinuxIFC date 2023.03.16  12:57:39
 running on   24 total cores
 distrk:  each k-point on   24 cores,    1 groups
 distr:  one band on NCORES_PER_BAND=  24 cores,    1 groups


--------------------------------------------------------------------------------------------------------


 INCAR:
 POTCAR:    PAW_PBE Sn 08Apr2002                  
 POTCAR:    PAW_PBE Se 06Sep2000                  

 ----------------------------------------------------------------------------- 
|                                                                             |
|           W    W    AA    RRRRR   N    N  II  N    N   GGGG   !!!           |
|           W    W   A  A   R    R  NN   N  II  NN   N  G    G  !!!           |
|           W    W  A    A  R    R  N N  N  II  N N  N  G       !!!           |
|           W WW W  AAAAAA  RRRRR   N  N N  II  N  N N  G  GGG   !            |
|           WW  WW  A    A  R   R   N   NN  II  N   NN  G    G                |
|           W    W  A    A  R    R  N    N  II  N    N   GGGG   !!!           |
|                                                                             |
|      For optimal performance we recommend to set                            |
|        NCORE= 4 - approx SQRT( number of cores)                             |
|      NCORE specifies how many cores store one orbital (NPAR=cpu/NCORE).     |
|      This setting can  greatly improve the performance of VASP for DFT.     |
|      The default,   NCORE=1            might be grossly inefficient         |
|      on modern multi-core architectures or massively parallel machines.     |
|      Do your own testing !!!!                                               |
|      Unfortunately you need to use the default for GW and RPA calculations. |
|      (for HF NCORE is supported but not extensively tested yet)             |
|                                                                             |
 ----------------------------------------------------------------------------- 

 POTCAR:    PAW_PBE Sn 08Apr2002                  
   VRHFIN =Sn: s2p2                                                             
   LEXCH  = PE                                                                  
   EATOM  =    94.0860 eV,    6.9151 Ry                                         
                                                                                
   TITEL  = PAW_PBE Sn 08Apr2002                                                
   LULTRA =        F    use ultrasoft PP ?                                      
   IUNSCR =        1    unscreen: 0-lin 1-nonlin 2-no                           
   RPACOR =    2.000    partial core radius                                     
   POMASS =  118.710; ZVAL   =    4.000    mass and valenz                      
   RCORE  =    3.000    outmost cutoff radius                                   
   RWIGS  =    2.960; RWIGS  =    1.566    wigner-seitz radius (au A)           
   ENMAX  =  103.236; ENMIN  =   77.427 eV                                      
   ICORE  =        3    local potential                                         
   LCOR   =        T    correct aug charges                                     
   LPAW   =        T    paw PP                                                  
   EAUG   =  263.585                                                            
   DEXC   =    0.000                                                            
   RMAX   =    3.078    core radius for proj-oper                               
   RAUG   =    1.300    factor for augmentation sphere                          
   RDEP   =    3.022    radius for radial grids                                 
   RDEPT  =    2.655    core radius for aug-charge                              
                                                                                
   Atomic configuration                                                         
   13 entries                                                                   
     n  l   j            E        occ.                                          
     1  0  0.50    -29007.2859   2.0000                                         
     2  0  0.50     -4378.8056   2.0000                                         
     2  1  1.50     -3930.4293   6.0000                                         
     3  0  0.50      -845.0264   2.0000                                         
     3  1  1.50      -698.5725   6.0000                                         
     3  2  2.50      -473.2839  10.0000                                         
     4  0  0.50      -133.9036   2.0000                                         
     4  1  1.50       -89.6752   6.0000                                         
     4  2  2.50       -25.8375  10.0000                                         
     5  0  0.50       -10.5484   2.0000                                         
     5  1  0.50        -3.6940   2.0000                                         
     5  2  1.50        -1.3606   0.0000                                         
     4  3  2.50        -4.0817   0.0000                                         
   Description                                                                  
     l       E           TYP  RCUT    TYP  RCUT                                 
     0    -10.5483727     23  3.000                                             
     0     27.2116520     23  3.000                                             
     1     -3.6939829     23  3.000                                             
     1      1.9821976     23  3.000                                             
     2     -1.3605826     23  3.000                                             
     3     -2.7211652     23  3.000                                             
  local pseudopotential read in
  partial core-charges read in
  partial kinetic energy density read in
  atomic valenz-charges read in
  non local Contribution for L=           0  read in
    real space projection operators read in
  non local Contribution for L=           0  read in
    real space projection operators read in
  non local Contribution for L=           1  read in
    real space projection operators read in
  non local Contribution for L=           1  read in
    real space projection operators read in
  non local Contribution for L=           2  read in
    real space projection operators read in
    PAW grid and wavefunctions read in
 
   number of l-projection  operators is LMAX  =           5
   number of lm-projection operators is LMMAX =          13
 
 POTCAR:    PAW_PBE Se 06Sep2000                  
   VRHFIN =Se: s2p4                                                             
   LEXCH  = PE                                                                  
   EATOM  =   257.1286 eV,   18.8984 Ry                                         
                                                                                
   TITEL  = PAW_PBE Se 06Sep2000                                                
   LULTRA =        F    use ultrasoft PP ?                                      
   IUNSCR =        1    unscreen: 0-lin 1-nonlin 2-no                           
   RPACOR =    1.900    partial core radius                                     
   POMASS =   78.960; ZVAL   =    6.000    mass and valenz                      
   RCORE  =    2.100    outmost cutoff radius                                   
   RWIGS  =    2.200; RWIGS  =    1.164    wigner-seitz radius (au A)           
   ENMAX  =  211.555; ENMIN  =  158.666 eV                                      
   ICORE  =        3    local potential                                         
   LCOR   =        T    correct aug charges                                     
   LPAW   =        T    paw PP                                                  
   EAUG   =  446.842                                                            
   DEXC   =    0.000                                                            
   RMAX   =    2.147    core radius for proj-oper                               
   RAUG   =    1.300    factor for augmentation sphere                          
   RDEP   =    2.177    radius for radial grids                                 
   RDEPT  =    1.928    core radius for aug-charge                              
                                                                                
   Atomic configuration                                                         
   10 entries                                                                   
     n  l   j            E        occ.                                          
     1  0  0.50    -12503.4787   2.0000                                         
     2  0  0.50     -1606.9547   2.0000                                         
     2  1  1.50     -1413.3140   6.0000                                         
     3  0  0.50      -213.4885   2.0000                                         
     3  1  1.50      -152.9538   6.0000                                         
     3  2  2.50       -53.1221  10.0000                                         
     4  0  0.50       -17.2865   2.0000                                         
     4  1  0.50        -6.5110   4.0000                                         
     4  2  2.50        -6.8029   0.0000                                         
     4  3  2.50        -6.8029   0.0000                                         
   Description                                                                  
     l       E           TYP  RCUT    TYP  RCUT                                 
     0    -17.2865377     23  2.100                                             
     0    -15.3094411     23  2.100                                             
     1     -6.5110275     23  2.100                                             
     1     -0.0695192     23  2.100                                             
     2     -6.8029130     23  2.100                                             
     3     -1.3605826      7  2.100                                             
  local pseudopotential read in
  partial core-charges read in
  partial kinetic energy density read in
  atomic valenz-charges read in
  non local Contribution for L=           0  read in
    real space projection operators read in
  non local Contribution for L=           0  read in
    real space projection operators read in
  non local Contribution for L=           1  read in
    real space projection operators read in
  non local Contribution for L=           1  read in
    real space projection operators read in
  non local Contribution for L=           2  read in
    real space projection operators read in
    PAW grid and wavefunctions read in
 
   number of l-projection  operators is LMAX  =           5
   number of lm-projection operators is LMMAX =          13
 
 WARNING: PSMAXN for non-local potential too small
          PSMAXN should be >   12.5490833729506       NTYP=           1
  PAW_PBE Sn 08Apr2002                  :
 energy of atom  1       EATOM=  -94.0860
 kinetic energy error for atom=    0.0000 (will be added to EATOM!!)
  PAW_PBE Se 06Sep2000                  :
 energy of atom  2       EATOM= -257.1286
 kinetic energy error for atom=    0.0006 (will be added to EATOM!!)
 
 
 POSCAR:  POSCAR with strain of 0.007            
  positions in direct lattice
  No initial velocities read in
 exchange correlation table for  LEXCH =        8
   RHO(1)=    0.500       N(1)  =     2000
   RHO(2)=  100.500       N(2)  =     4000
 


--------------------------------------------------------------------------------------------------------


 ion  position               nearest neighbor table
   1  0.581  0.750  0.569-   4 2.72   3 2.93   3 2.93   3 3.23   3 3.23
   2  0.081  0.250  0.431-   3 2.72   4 2.93   4 2.93   4 3.23   4 3.23
   3  0.033  0.250  0.567-   2 2.72   1 2.93   1 2.93   1 3.23   1 3.23
   4  0.533  0.750  0.433-   1 2.72   2 2.93   2 2.93   2 3.23   2 3.23
 

IMPORTANT INFORMATION: All symmetrisations will be switched off!
NOSYMM: (Re-)initialisation of all symmetry stuff for point group C_1.

 
 
 KPOINTS: KMesh Grid                              

Automatic generation of k-mesh.
Space group operators:
 irot       det(A)        alpha          n_x          n_y          n_z        tau_x        tau_y        tau_z
    1     1.000000     0.000000     1.000000     0.000000     0.000000     0.000000     0.000000     0.000000
 
 Subroutine IBZKPT returns following result:
 ===========================================
 
 Found    113 irreducible k-points:
 
 Following reciprocal coordinates:
            Coordinates               Weight
  0.000000  0.000000  0.000000      1.000000
  0.066667  0.000000  0.000000      2.000000
  0.133333  0.000000  0.000000      2.000000
  0.200000  0.000000  0.000000      2.000000
  0.266667  0.000000  0.000000      2.000000
  0.333333  0.000000  0.000000      2.000000
  0.400000  0.000000  0.000000      2.000000
  0.466667  0.000000  0.000000      2.000000
  0.000000  0.066667  0.000000      2.000000
  0.066667  0.066667  0.000000      2.000000
  0.133333  0.066667  0.000000      2.000000
  0.200000  0.066667  0.000000      2.000000
  0.266667  0.066667  0.000000      2.000000
  0.333333  0.066667  0.000000      2.000000
  0.400000  0.066667  0.000000      2.000000
  0.466667  0.066667  0.000000      2.000000
 -0.466667  0.066667  0.000000      2.000000
 -0.400000  0.066667  0.000000      2.000000
 -0.333333  0.066667  0.000000      2.000000
 -0.266667  0.066667  0.000000      2.000000
 -0.200000  0.066667  0.000000      2.000000
 -0.133333  0.066667  0.000000      2.000000
 -0.066667  0.066667  0.000000      2.000000
  0.000000  0.133333  0.000000      2.000000
  0.066667  0.133333  0.000000      2.000000
  0.133333  0.133333  0.000000      2.000000
  0.200000  0.133333  0.000000      2.000000
  0.266667  0.133333  0.000000      2.000000
  0.333333  0.133333  0.000000      2.000000
  0.400000  0.133333  0.000000      2.000000
  0.466667  0.133333  0.000000      2.000000
 -0.466667  0.133333  0.000000      2.000000
 -0.400000  0.133333  0.000000      2.000000
 -0.333333  0.133333  0.000000      2.000000
 -0.266667  0.133333  0.000000      2.000000
 -0.200000  0.133333  0.000000      2.000000
 -0.133333  0.133333  0.000000      2.000000
 -0.066667  0.133333  0.000000      2.000000
  0.000000  0.200000  0.000000      2.000000
  0.066667  0.200000  0.000000      2.000000
  0.133333  0.200000  0.000000      2.000000
  0.200000  0.200000  0.000000      2.000000
  0.266667  0.200000  0.000000      2.000000
  0.333333  0.200000  0.000000      2.000000
  0.400000  0.200000  0.000000      2.000000
  0.466667  0.200000  0.000000      2.000000
 -0.466667  0.200000  0.000000      2.000000
 -0.400000  0.200000  0.000000      2.000000
 -0.333333  0.200000  0.000000      2.000000
 -0.266667  0.200000  0.000000      2.000000
 -0.200000  0.200000  0.000000      2.000000
 -0.133333  0.200000  0.000000      2.000000
 -0.066667  0.200000  0.000000      2.000000
  0.000000  0.266667  0.000000      2.000000
  0.066667  0.266667  0.000000      2.000000
  0.133333  0.266667  0.000000      2.000000
  0.200000  0.266667  0.000000      2.000000
  0.266667  0.266667  0.000000      2.000000
  0.333333  0.266667  0.000000      2.000000
  0.400000  0.266667  0.000000      2.000000
  0.466667  0.266667  0.000000      2.000000
 -0.466667  0.266667  0.000000      2.000000
 -0.400000  0.266667  0.000000      2.000000
 -0.333333  0.266667  0.000000      2.000000
 -0.266667  0.266667  0.000000      2.000000
 -0.200000  0.266667  0.000000      2.000000
 -0.133333  0.266667  0.000000      2.000000
 -0.066667  0.266667  0.000000      2.000000
  0.000000  0.333333  0.000000      2.000000
  0.066667  0.333333  0.000000      2.000000
  0.133333  0.333333  0.000000      2.000000
  0.200000  0.333333  0.000000      2.000000
  0.266667  0.333333  0.000000      2.000000
  0.333333  0.333333  0.000000      2.000000
  0.400000  0.333333  0.000000      2.000000
  0.466667  0.333333  0.000000      2.000000
 -0.466667  0.333333  0.000000      2.000000
 -0.400000  0.333333  0.000000      2.000000
 -0.333333  0.333333  0.000000      2.000000
 -0.266667  0.333333  0.000000      2.000000
 -0.200000  0.333333  0.000000      2.000000
 -0.133333  0.333333  0.000000      2.000000
 -0.066667  0.333333  0.000000      2.000000
  0.000000  0.400000  0.000000      2.000000
  0.066667  0.400000  0.000000      2.000000
  0.133333  0.400000  0.000000      2.000000
  0.200000  0.400000  0.000000      2.000000
  0.266667  0.400000  0.000000      2.000000
  0.333333  0.400000  0.000000      2.000000
  0.400000  0.400000  0.000000      2.000000
  0.466667  0.400000  0.000000      2.000000
 -0.466667  0.400000  0.000000      2.000000
 -0.400000  0.400000  0.000000      2.000000
 -0.333333  0.400000  0.000000      2.000000
 -0.266667  0.400000  0.000000      2.000000
 -0.200000  0.400000  0.000000      2.000000
 -0.133333  0.400000  0.000000      2.000000
 -0.066667  0.400000  0.000000      2.000000
  0.000000  0.466667  0.000000      2.000000
  0.066667  0.466667  0.000000      2.000000
  0.133333  0.466667  0.000000      2.000000
  0.200000  0.466667  0.000000      2.000000
  0.266667  0.466667  0.000000      2.000000
  0.333333  0.466667  0.000000      2.000000
  0.400000  0.466667  0.000000      2.000000
  0.466667  0.466667  0.000000      2.000000
 -0.466667  0.466667  0.000000      2.000000
 -0.400000  0.466667  0.000000      2.000000
 -0.333333  0.466667  0.000000      2.000000
 -0.266667  0.466667  0.000000      2.000000
 -0.200000  0.466667  0.000000      2.000000
 -0.133333  0.466667  0.000000      2.000000
 -0.066667  0.466667  0.000000      2.000000
 
 Following cartesian coordinates:
            Coordinates               Weight
  0.000000  0.000000  0.000000      1.000000
  0.015213  0.000000  0.000000      2.000000
  0.030425  0.000000  0.000000      2.000000
  0.045638  0.000000  0.000000      2.000000
  0.060850  0.000000  0.000000      2.000000
  0.076063  0.000000  0.000000      2.000000
  0.091275  0.000000  0.000000      2.000000
  0.106488  0.000000  0.000000      2.000000
  0.000000  0.015415  0.000000      2.000000
  0.015213  0.015415  0.000000      2.000000
  0.030425  0.015415  0.000000      2.000000
  0.045638  0.015415  0.000000      2.000000
  0.060850  0.015415  0.000000      2.000000
  0.076063  0.015415  0.000000      2.000000
  0.091275  0.015415  0.000000      2.000000
  0.106488  0.015415  0.000000      2.000000
 -0.106488  0.015415  0.000000      2.000000
 -0.091275  0.015415  0.000000      2.000000
 -0.076063  0.015415  0.000000      2.000000
 -0.060850  0.015415  0.000000      2.000000
 -0.045638  0.015415  0.000000      2.000000
 -0.030425  0.015415  0.000000      2.000000
 -0.015213  0.015415  0.000000      2.000000
  0.000000  0.030831  0.000000      2.000000
  0.015213  0.030831  0.000000      2.000000
  0.030425  0.030831  0.000000      2.000000
  0.045638  0.030831  0.000000      2.000000
  0.060850  0.030831  0.000000      2.000000
  0.076063  0.030831  0.000000      2.000000
  0.091275  0.030831  0.000000      2.000000
  0.106488  0.030831  0.000000      2.000000
 -0.106488  0.030831  0.000000      2.000000
 -0.091275  0.030831  0.000000      2.000000
 -0.076063  0.030831  0.000000      2.000000
 -0.060850  0.030831  0.000000      2.000000
 -0.045638  0.030831  0.000000      2.000000
 -0.030425  0.030831  0.000000      2.000000
 -0.015213  0.030831  0.000000      2.000000
  0.000000  0.046246  0.000000      2.000000
  0.015213  0.046246  0.000000      2.000000
  0.030425  0.046246  0.000000      2.000000
  0.045638  0.046246  0.000000      2.000000
  0.060850  0.046246  0.000000      2.000000
  0.076063  0.046246  0.000000      2.000000
  0.091275  0.046246  0.000000      2.000000
  0.106488  0.046246  0.000000      2.000000
 -0.106488  0.046246  0.000000      2.000000
 -0.091275  0.046246  0.000000      2.000000
 -0.076063  0.046246  0.000000      2.000000
 -0.060850  0.046246  0.000000      2.000000
 -0.045638  0.046246  0.000000      2.000000
 -0.030425  0.046246  0.000000      2.000000
 -0.015213  0.046246  0.000000      2.000000
  0.000000  0.061662  0.000000      2.000000
  0.015213  0.061662  0.000000      2.000000
  0.030425  0.061662  0.000000      2.000000
  0.045638  0.061662  0.000000      2.000000
  0.060850  0.061662  0.000000      2.000000
  0.076063  0.061662  0.000000      2.000000
  0.091275  0.061662  0.000000      2.000000
  0.106488  0.061662  0.000000      2.000000
 -0.106488  0.061662  0.000000      2.000000
 -0.091275  0.061662  0.000000      2.000000
 -0.076063  0.061662  0.000000      2.000000
 -0.060850  0.061662  0.000000      2.000000
 -0.045638  0.061662  0.000000      2.000000
 -0.030425  0.061662  0.000000      2.000000
 -0.015213  0.061662  0.000000      2.000000
  0.000000  0.077077  0.000000      2.000000
  0.015213  0.077077  0.000000      2.000000
  0.030425  0.077077  0.000000      2.000000
  0.045638  0.077077  0.000000      2.000000
  0.060850  0.077077  0.000000      2.000000
  0.076063  0.077077  0.000000      2.000000
  0.091275  0.077077  0.000000      2.000000
  0.106488  0.077077  0.000000      2.000000
 -0.106488  0.077077  0.000000      2.000000
 -0.091275  0.077077  0.000000      2.000000
 -0.076063  0.077077  0.000000      2.000000
 -0.060850  0.077077  0.000000      2.000000
 -0.045638  0.077077  0.000000      2.000000
 -0.030425  0.077077  0.000000      2.000000
 -0.015213  0.077077  0.000000      2.000000
  0.000000  0.092493  0.000000      2.000000
  0.015213  0.092493  0.000000      2.000000
  0.030425  0.092493  0.000000      2.000000
  0.045638  0.092493  0.000000      2.000000
  0.060850  0.092493  0.000000      2.000000
  0.076063  0.092493  0.000000      2.000000
  0.091275  0.092493  0.000000      2.000000
  0.106488  0.092493  0.000000      2.000000
 -0.106488  0.092493  0.000000      2.000000
 -0.091275  0.092493  0.000000      2.000000
 -0.076063  0.092493  0.000000      2.000000
 -0.060850  0.092493  0.000000      2.000000
 -0.045638  0.092493  0.000000      2.000000
 -0.030425  0.092493  0.000000      2.000000
 -0.015213  0.092493  0.000000      2.000000
  0.000000  0.107908  0.000000      2.000000
  0.015213  0.107908  0.000000      2.000000
  0.030425  0.107908  0.000000      2.000000
  0.045638  0.107908  0.000000      2.000000
  0.060850  0.107908  0.000000      2.000000
  0.076063  0.107908  0.000000      2.000000
  0.091275  0.107908  0.000000      2.000000
  0.106488  0.107908  0.000000      2.000000
 -0.106488  0.107908  0.000000      2.000000
 -0.091275  0.107908  0.000000      2.000000
 -0.076063  0.107908  0.000000      2.000000
 -0.060850  0.107908  0.000000      2.000000
 -0.045638  0.107908  0.000000      2.000000
 -0.030425  0.107908  0.000000      2.000000
 -0.015213  0.107908  0.000000      2.000000
 


--------------------------------------------------------------------------------------------------------




 Dimension of arrays:
   k-points           NKPTS =    113   k-points in BZ     NKDIM =    113   number of bands    NBANDS=     14
   number of dos      NEDOS =    301   number of ions     NIONS =      4
   non local maximal  LDIM  =      5   non local SUM 2l+1 LMDIM =     13
   total plane-waves  NPLWV = 207360
   max r-space proj   IRMAX =      1   max aug-charges    IRDMAX=  52852
   dimension x,y,z NGX =    36 NGY =   36 NGZ =  160
   dimension x,y,z NGXF=    72 NGYF=   72 NGZF=  320
   support grid    NGXF=    72 NGYF=   72 NGZF=  320
   ions per type =               2   2
   NGX,Y,Z   is equivalent  to a cutoff of  13.66, 13.84, 13.30 a.u.
   NGXF,Y,Z  is equivalent  to a cutoff of  27.31, 27.68, 26.60 a.u.

 SYSTEM =  SnSe                                    
 POSCAR =   POSCAR with strain of 0.007            

 Startparameter for this run:
   NWRITE =      2    write-flag & timer
   PREC   = accura    normal or accurate (medium, high low for compatibility)
   ISTART =      0    job   : 0-new  1-cont  2-samecut
   ICHARG =      2    charge: 1-file 2-atom 10-const
   ISPIN  =      1    spin polarized calculation?
   LNONCOLLINEAR =      F non collinear calculations
   LSORBIT =      F    spin-orbit coupling
   INIWAV =      1    electr: 0-lowe 1-rand  2-diag
   LASPH  =      F    aspherical Exc in radial PAW
   METAGGA=      F    non-selfconsistent MetaGGA calc.

 Electronic Relaxation 1
   ENCUT  =  600.0 eV  44.10 Ry    6.64 a.u.   8.75  8.64 39.94*2*pi/ulx,y,z
   ENINI  =  600.0     initial cutoff
   ENAUG  =  446.8 eV  augmentation charge cutoff
   NELM   =     60;   NELMIN=  2; NELMDL= -5     # of ELM steps 
   EDIFF  = 0.1E-05   stopping-criterion for ELM
   LREAL  =      F    real-space projection
   NLSPLINE    = F    spline interpolate recip. space projectors
   LCOMPAT=      F    compatible to vasp.4.4
   GGA_COMPAT  = T    GGA compatible to vasp.4.4-vasp.4.6
   LMAXPAW     = -100 max onsite density
   LMAXMIX     =    2 max onsite mixed and CHGCAR
   VOSKOWN=      0    Vosko Wilk Nusair interpolation
   ROPT   =    0.00000   0.00000
 Ionic relaxation
   EDIFFG = -.1E-02   stopping-criterion for IOM
   NSW    =    100    number of steps for IOM
   NBLOCK =      1;   KBLOCK =    100    inner block; outer block 
   IBRION =      2    ionic relax: 0-MD 1-quasi-New 2-CG
   NFREE  =      1    steps in history (QN), initial steepest desc. (CG)
   ISIF   =      2    stress and relaxation
   IWAVPR =     11    prediction:  0-non 1-charg 2-wave 3-comb
   ISYM   =      0    0-nonsym 1-usesym 2-fastsym
   LCORR  =      T    Harris-Foulkes like correction to forces

   POTIM  = 0.5000    time-step for ionic-motion
   TEIN   =    0.0    initial temperature
   TEBEG  =    0.0;   TEEND  =   0.0 temperature during run
   SMASS  =  -3.00    Nose mass-parameter (am)
   estimated Nose-frequenzy (Omega)   =  0.10E-29 period in steps =****** mass=  -0.439E-27a.u.
   SCALEE = 1.0000    scale energy and forces
   NPACO  =    256;   APACO  = 16.0  distance and # of slots for P.C.
   PSTRESS=    0.0 pullay stress

  Mass of Ions in am
   POMASS = 118.71 78.96
  Ionic Valenz
   ZVAL   =   4.00  6.00
  Atomic Wigner-Seitz radii
   RWIGS  =  -1.00 -1.00
  virtual crystal weights 
   VCA    =   1.00  1.00
   NELECT =      20.0000    total number of electrons
   NUPDOWN=      -1.0000    fix difference up-down

 DOS related values:
   EMIN   =  10.00;   EMAX   =-10.00  energy-range for DOS
   EFERMI =   0.00
   ISMEAR =     0;   SIGMA  =   0.10  broadening in eV -4-tet -1-fermi 0-gaus

 Electronic relaxation 2 (details)
   IALGO  =     38    algorithm
   LDIAG  =      T    sub-space diagonalisation (order eigenvalues)
   LSUBROT=      F    optimize rotation matrix (better conditioning)
   TURBO    =      0    0=normal 1=particle mesh
   IRESTART =      0    0=no restart 2=restart with 2 vectors
   NREBOOT  =      0    no. of reboots
   NMIN     =      0    reboot dimension
   EREF     =   0.00    reference energy to select bands
   IMIX   =      4    mixing-type and parameters
     AMIX     =   0.40;   BMIX     =  1.00
     AMIX_MAG =   1.60;   BMIX_MAG =  1.00
     AMIN     =   0.10
     WC   =   100.;   INIMIX=   1;  MIXPRE=   1;  MAXMIX= -45

 Intra band minimization:
   WEIMIN = 0.0010     energy-eigenvalue tresh-hold
   EBREAK =  0.18E-07  absolut break condition
   DEPER  =   0.30     relativ break condition  

   TIME   =   0.40     timestep for ELM

  volume/ion in A,a.u.               =      94.76       639.48
  Fermi-wavevector in a.u.,A,eV,Ry     =   0.614028  1.160344  5.129803  0.377030
  Thomas-Fermi vector in A             =   1.670890
 
 Write flags
   LWAVE        =      T    write WAVECAR
   LDOWNSAMPLE  =      F    k-point downsampling of WAVECAR
   LCHARG       =      T    write CHGCAR
   LVTOT        =      F    write LOCPOT, total local potential
   LVHAR        =      F    write LOCPOT, Hartree potential only
   LELF         =      F    write electronic localiz. function (ELF)
   LORBIT       =      0    0 simple, 1 ext, 2 COOP (PROOUT), +10 PAW based schemes


 Dipole corrections
   LMONO  =      F    monopole corrections only (constant potential shift)
   LDIPOL =      F    correct potential (dipole corrections)
   IDIPOL =      0    1-x, 2-y, 3-z, 4-all directions 
   EPSILON=  1.0000000 bulk dielectric constant

 Exchange correlation treatment:
   GGA     =    PE    GGA type
   LEXCH   =     8    internal setting for exchange type
   VOSKOWN=      0    Vosko Wilk Nusair interpolation
   LHFCALC =     F    Hartree Fock is set to
   LHFONE  =     F    Hartree Fock one center treatment
   AEXX    =    0.0000 exact exchange contribution

 Linear response parameters
   LEPSILON=     F    determine dielectric tensor
   LRPA    =     F    only Hartree local field effects (RPA)
   LNABLA  =     F    use nabla operator in PAW spheres
   LVEL    =     F    velocity operator in full k-point grid
   LINTERFAST=   F  fast interpolation
   KINTER  =     0    interpolate to denser k-point grid
   CSHIFT  =0.1000    complex shift for real part using Kramers Kronig
   OMEGAMAX=  -1.0    maximum frequency
   DEG_THRESHOLD= 0.2000000E-02 threshold for treating states as degnerate
   RTIME   =   -0.100 relaxation time in fs
  (WPLASMAI=    0.000 imaginary part of plasma frequency in eV, 0.658/RTIME)
   DFIELD  = 0.0000000 0.0000000 0.0000000 field for delta impulse in time
 
 Orbital magnetization related:
   ORBITALMAG=     F  switch on orbital magnetization
   LCHIMAG   =     F  perturbation theory with respect to B field
   DQ        =  0.001000  dq finite difference perturbation B field
   LLRAUG    =     F  two centre corrections for induced B field



--------------------------------------------------------------------------------------------------------


 conjugate gradient relaxation of ions
 charge density and potential will be updated during run
 non-spin polarized calculation
 Variant of blocked Davidson
 Davidson routine will perform the subspace rotation
 perform sub-space diagonalisation
    after iterative eigenvector-optimisation
 modified Broyden-mixing scheme, WC =      100.0
 initial mixing is a Kerker type mixing with AMIX =  0.4000 and BMIX =      1.0000
 Hartree-type preconditioning will be used
 using additional bands            4
 reciprocal scheme for non local part
 use partial core corrections
 calculate Harris-corrections to forces 
   (improved forces if not selfconsistent)
 use gradient corrections 
 use of overlap-Matrix (Vanderbilt PP)
 Gauss-broadening in eV      SIGMA  =   0.10


--------------------------------------------------------------------------------------------------------


  energy-cutoff  :      600.00
  volume of cell :      379.05
      direct lattice vectors                 reciprocal lattice vectors
     4.382356765  0.000000000  0.000000000     0.228187720  0.000000000  0.000000000
     0.000000000  4.324671441  0.000000000     0.000000000  0.231231439  0.000000000
     0.000000000  0.000000000 20.000000000     0.000000000  0.000000000  0.050000000

  length of vectors
     4.382356765  4.324671441 20.000000000     0.228187720  0.231231439  0.050000000


 
 k-points in units of 2pi/SCALE and weight: KMesh Grid                              
   0.00000000  0.00000000  0.00000000       0.004
   0.01521251  0.00000000  0.00000000       0.009
   0.03042503  0.00000000  0.00000000       0.009
   0.04563754  0.00000000  0.00000000       0.009
   0.06085006  0.00000000  0.00000000       0.009
   0.07606257  0.00000000  0.00000000       0.009
   0.09127509  0.00000000  0.00000000       0.009
   0.10648760  0.00000000  0.00000000       0.009
   0.00000000  0.01541543  0.00000000       0.009
   0.01521251  0.01541543  0.00000000       0.009
   0.03042503  0.01541543  0.00000000       0.009
   0.04563754  0.01541543  0.00000000       0.009
   0.06085006  0.01541543  0.00000000       0.009
   0.07606257  0.01541543  0.00000000       0.009
   0.09127509  0.01541543  0.00000000       0.009
   0.10648760  0.01541543  0.00000000       0.009
  -0.10648760  0.01541543  0.00000000       0.009
  -0.09127509  0.01541543  0.00000000       0.009
  -0.07606257  0.01541543  0.00000000       0.009
  -0.06085006  0.01541543  0.00000000       0.009
  -0.04563754  0.01541543  0.00000000       0.009
  -0.03042503  0.01541543  0.00000000       0.009
  -0.01521251  0.01541543  0.00000000       0.009
   0.00000000  0.03083086  0.00000000       0.009
   0.01521251  0.03083086  0.00000000       0.009
   0.03042503  0.03083086  0.00000000       0.009
   0.04563754  0.03083086  0.00000000       0.009
   0.06085006  0.03083086  0.00000000       0.009
   0.07606257  0.03083086  0.00000000       0.009
   0.09127509  0.03083086  0.00000000       0.009
   0.10648760  0.03083086  0.00000000       0.009
  -0.10648760  0.03083086  0.00000000       0.009
  -0.09127509  0.03083086  0.00000000       0.009
  -0.07606257  0.03083086  0.00000000       0.009
  -0.06085006  0.03083086  0.00000000       0.009
  -0.04563754  0.03083086  0.00000000       0.009
  -0.03042503  0.03083086  0.00000000       0.009
  -0.01521251  0.03083086  0.00000000       0.009
   0.00000000  0.04624629  0.00000000       0.009
   0.01521251  0.04624629  0.00000000       0.009
   0.03042503  0.04624629  0.00000000       0.009
   0.04563754  0.04624629  0.00000000       0.009
   0.06085006  0.04624629  0.00000000       0.009
   0.07606257  0.04624629  0.00000000       0.009
   0.09127509  0.04624629  0.00000000       0.009
   0.10648760  0.04624629  0.00000000       0.009
  -0.10648760  0.04624629  0.00000000       0.009
  -0.09127509  0.04624629  0.00000000       0.009
  -0.07606257  0.04624629  0.00000000       0.009
  -0.06085006  0.04624629  0.00000000       0.009
  -0.04563754  0.04624629  0.00000000       0.009
  -0.03042503  0.04624629  0.00000000       0.009
  -0.01521251  0.04624629  0.00000000       0.009
   0.00000000  0.06166172  0.00000000       0.009
   0.01521251  0.06166172  0.00000000       0.009
   0.03042503  0.06166172  0.00000000       0.009
   0.04563754  0.06166172  0.00000000       0.009
   0.06085006  0.06166172  0.00000000       0.009
   0.07606257  0.06166172  0.00000000       0.009
   0.09127509  0.06166172  0.00000000       0.009
   0.10648760  0.06166172  0.00000000       0.009
  -0.10648760  0.06166172  0.00000000       0.009
  -0.09127509  0.06166172  0.00000000       0.009
  -0.07606257  0.06166172  0.00000000       0.009
  -0.06085006  0.06166172  0.00000000       0.009
  -0.04563754  0.06166172  0.00000000       0.009
  -0.03042503  0.06166172  0.00000000       0.009
  -0.01521251  0.06166172  0.00000000       0.009
   0.00000000  0.07707715  0.00000000       0.009
   0.01521251  0.07707715  0.00000000       0.009
   0.03042503  0.07707715  0.00000000       0.009
   0.04563754  0.07707715  0.00000000       0.009
   0.06085006  0.07707715  0.00000000       0.009
   0.07606257  0.07707715  0.00000000       0.009
   0.09127509  0.07707715  0.00000000       0.009
   0.10648760  0.07707715  0.00000000       0.009
  -0.10648760  0.07707715  0.00000000       0.009
  -0.09127509  0.07707715  0.00000000       0.009
  -0.07606257  0.07707715  0.00000000       0.009
  -0.06085006  0.07707715  0.00000000       0.009
  -0.04563754  0.07707715  0.00000000       0.009
  -0.03042503  0.07707715  0.00000000       0.009
  -0.01521251  0.07707715  0.00000000       0.009
   0.00000000  0.09249258  0.00000000       0.009
   0.01521251  0.09249258  0.00000000       0.009
   0.03042503  0.09249258  0.00000000       0.009
   0.04563754  0.09249258  0.00000000       0.009
   0.06085006  0.09249258  0.00000000       0.009
   0.07606257  0.09249258  0.00000000       0.009
   0.09127509  0.09249258  0.00000000       0.009
   0.10648760  0.09249258  0.00000000       0.009
  -0.10648760  0.09249258  0.00000000       0.009
  -0.09127509  0.09249258  0.00000000       0.009
  -0.07606257  0.09249258  0.00000000       0.009
  -0.06085006  0.09249258  0.00000000       0.009
  -0.04563754  0.09249258  0.00000000       0.009
  -0.03042503  0.09249258  0.00000000       0.009
  -0.01521251  0.09249258  0.00000000       0.009
   0.00000000  0.10790800  0.00000000       0.009
   0.01521251  0.10790800  0.00000000       0.009
   0.03042503  0.10790800  0.00000000       0.009
   0.04563754  0.10790800  0.00000000       0.009
   0.06085006  0.10790800  0.00000000       0.009
   0.07606257  0.10790800  0.00000000       0.009
   0.09127509  0.10790800  0.00000000       0.009
   0.10648760  0.10790800  0.00000000       0.009
  -0.10648760  0.10790800  0.00000000       0.009
  -0.09127509  0.10790800  0.00000000       0.009
  -0.07606257  0.10790800  0.00000000       0.009
  -0.06085006  0.10790800  0.00000000       0.009
  -0.04563754  0.10790800  0.00000000       0.009
  -0.03042503  0.10790800  0.00000000       0.009
  -0.01521251  0.10790800  0.00000000       0.009
 
 k-points in reciprocal lattice and weights: KMesh Grid                              
   0.00000000  0.00000000  0.00000000       0.004
   0.06666667  0.00000000  0.00000000       0.009
   0.13333333  0.00000000  0.00000000       0.009
   0.20000000  0.00000000  0.00000000       0.009
   0.26666667  0.00000000  0.00000000       0.009
   0.33333333  0.00000000  0.00000000       0.009
   0.40000000  0.00000000  0.00000000       0.009
   0.46666667  0.00000000  0.00000000       0.009
   0.00000000  0.06666667  0.00000000       0.009
   0.06666667  0.06666667  0.00000000       0.009
   0.13333333  0.06666667  0.00000000       0.009
   0.20000000  0.06666667  0.00000000       0.009
   0.26666667  0.06666667  0.00000000       0.009
   0.33333333  0.06666667  0.00000000       0.009
   0.40000000  0.06666667  0.00000000       0.009
   0.46666667  0.06666667  0.00000000       0.009
  -0.46666667  0.06666667  0.00000000       0.009
  -0.40000000  0.06666667  0.00000000       0.009
  -0.33333333  0.06666667  0.00000000       0.009
  -0.26666667  0.06666667  0.00000000       0.009
  -0.20000000  0.06666667  0.00000000       0.009
  -0.13333333  0.06666667  0.00000000       0.009
  -0.06666667  0.06666667  0.00000000       0.009
   0.00000000  0.13333333  0.00000000       0.009
   0.06666667  0.13333333  0.00000000       0.009
   0.13333333  0.13333333  0.00000000       0.009
   0.20000000  0.13333333  0.00000000       0.009
   0.26666667  0.13333333  0.00000000       0.009
   0.33333333  0.13333333  0.00000000       0.009
   0.40000000  0.13333333  0.00000000       0.009
   0.46666667  0.13333333  0.00000000       0.009
  -0.46666667  0.13333333  0.00000000       0.009
  -0.40000000  0.13333333  0.00000000       0.009
  -0.33333333  0.13333333  0.00000000       0.009
  -0.26666667  0.13333333  0.00000000       0.009
  -0.20000000  0.13333333  0.00000000       0.009
  -0.13333333  0.13333333  0.00000000       0.009
  -0.06666667  0.13333333  0.00000000       0.009
   0.00000000  0.20000000  0.00000000       0.009
   0.06666667  0.20000000  0.00000000       0.009
   0.13333333  0.20000000  0.00000000       0.009
   0.20000000  0.20000000  0.00000000       0.009
   0.26666667  0.20000000  0.00000000       0.009
   0.33333333  0.20000000  0.00000000       0.009
   0.40000000  0.20000000  0.00000000       0.009
   0.46666667  0.20000000  0.00000000       0.009
  -0.46666667  0.20000000  0.00000000       0.009
  -0.40000000  0.20000000  0.00000000       0.009
  -0.33333333  0.20000000  0.00000000       0.009
  -0.26666667  0.20000000  0.00000000       0.009
  -0.20000000  0.20000000  0.00000000       0.009
  -0.13333333  0.20000000  0.00000000       0.009
  -0.06666667  0.20000000  0.00000000       0.009
   0.00000000  0.26666667  0.00000000       0.009
   0.06666667  0.26666667  0.00000000       0.009
   0.13333333  0.26666667  0.00000000       0.009
   0.20000000  0.26666667  0.00000000       0.009
   0.26666667  0.26666667  0.00000000       0.009
   0.33333333  0.26666667  0.00000000       0.009
   0.40000000  0.26666667  0.00000000       0.009
   0.46666667  0.26666667  0.00000000       0.009
  -0.46666667  0.26666667  0.00000000       0.009
  -0.40000000  0.26666667  0.00000000       0.009
  -0.33333333  0.26666667  0.00000000       0.009
  -0.26666667  0.26666667  0.00000000       0.009
  -0.20000000  0.26666667  0.00000000       0.009
  -0.13333333  0.26666667  0.00000000       0.009
  -0.06666667  0.26666667  0.00000000       0.009
   0.00000000  0.33333333  0.00000000       0.009
   0.06666667  0.33333333  0.00000000       0.009
   0.13333333  0.33333333  0.00000000       0.009
   0.20000000  0.33333333  0.00000000       0.009
   0.26666667  0.33333333  0.00000000       0.009
   0.33333333  0.33333333  0.00000000       0.009
   0.40000000  0.33333333  0.00000000       0.009
   0.46666667  0.33333333  0.00000000       0.009
  -0.46666667  0.33333333  0.00000000       0.009
  -0.40000000  0.33333333  0.00000000       0.009
  -0.33333333  0.33333333  0.00000000       0.009
  -0.26666667  0.33333333  0.00000000       0.009
  -0.20000000  0.33333333  0.00000000       0.009
  -0.13333333  0.33333333  0.00000000       0.009
  -0.06666667  0.33333333  0.00000000       0.009
   0.00000000  0.40000000  0.00000000       0.009
   0.06666667  0.40000000  0.00000000       0.009
   0.13333333  0.40000000  0.00000000       0.009
   0.20000000  0.40000000  0.00000000       0.009
   0.26666667  0.40000000  0.00000000       0.009
   0.33333333  0.40000000  0.00000000       0.009
   0.40000000  0.40000000  0.00000000       0.009
   0.46666667  0.40000000  0.00000000       0.009
  -0.46666667  0.40000000  0.00000000       0.009
  -0.40000000  0.40000000  0.00000000       0.009
  -0.33333333  0.40000000  0.00000000       0.009
  -0.26666667  0.40000000  0.00000000       0.009
  -0.20000000  0.40000000  0.00000000       0.009
  -0.13333333  0.40000000  0.00000000       0.009
  -0.06666667  0.40000000  0.00000000       0.009
   0.00000000  0.46666667  0.00000000       0.009
   0.06666667  0.46666667  0.00000000       0.009
   0.13333333  0.46666667  0.00000000       0.009
   0.20000000  0.46666667  0.00000000       0.009
   0.26666667  0.46666667  0.00000000       0.009
   0.33333333  0.46666667  0.00000000       0.009
   0.40000000  0.46666667  0.00000000       0.009
   0.46666667  0.46666667  0.00000000       0.009
  -0.46666667  0.46666667  0.00000000       0.009
  -0.40000000  0.46666667  0.00000000       0.009
  -0.33333333  0.46666667  0.00000000       0.009
  -0.26666667  0.46666667  0.00000000       0.009
  -0.20000000  0.46666667  0.00000000       0.009
  -0.13333333  0.46666667  0.00000000       0.009
  -0.06666667  0.46666667  0.00000000       0.009
 
 position of ions in fractional coordinates (direct lattice) 
   0.58124336  0.75000000  0.56874314
   0.08124336  0.25000000  0.43125686
   0.03286064  0.25000000  0.56707387
   0.53286061  0.75000000  0.43292613
 
 position of ions in cartesian coordinates  (Angst):
   2.54721576  3.24350358 11.37486283
   0.35603738  1.08116786  8.62513717
   0.14400706  1.08116786 11.34147733
   2.33518532  3.24350358  8.65852267
 


--------------------------------------------------------------------------------------------------------


 k-point  1 :   0.0000 0.0000 0.0000  plane waves:   12719
 k-point  2 :   0.0667 0.0000 0.0000  plane waves:   12709
 k-point  3 :   0.1333 0.0000 0.0000  plane waves:   12679
 k-point  4 :   0.2000 0.0000 0.0000  plane waves:   12645
 k-point  5 :   0.2667 0.0000 0.0000  plane waves:   12632
 k-point  6 :   0.3333 0.0000 0.0000  plane waves:   12630
 k-point  7 :   0.4000 0.0000 0.0000  plane waves:   12682
 k-point  8 :   0.4667 0.0000 0.0000  plane waves:   12650
 k-point  9 :   0.0000 0.0667 0.0000  plane waves:   12685
 k-point 10 :   0.0667 0.0667 0.0000  plane waves:   12690
 k-point 11 :   0.1333 0.0667 0.0000  plane waves:   12676
 k-point 12 :   0.2000 0.0667 0.0000  plane waves:   12652
 k-point 13 :   0.2667 0.0667 0.0000  plane waves:   12637
 k-point 14 :   0.3333 0.0667 0.0000  plane waves:   12666
 k-point 15 :   0.4000 0.0667 0.0000  plane waves:   12663
 k-point 16 :   0.4667 0.0667 0.0000  plane waves:   12648
 k-point 17 :  -0.4667 0.0667 0.0000  plane waves:   12648
 k-point 18 :  -0.4000 0.0667 0.0000  plane waves:   12663
 k-point 19 :  -0.3333 0.0667 0.0000  plane waves:   12666
 k-point 20 :  -0.2667 0.0667 0.0000  plane waves:   12637
 k-point 21 :  -0.2000 0.0667 0.0000  plane waves:   12652
 k-point 22 :  -0.1333 0.0667 0.0000  plane waves:   12676
 k-point 23 :  -0.0667 0.0667 0.0000  plane waves:   12690
 k-point 24 :   0.0000 0.1333 0.0000  plane waves:   12643
 k-point 25 :   0.0667 0.1333 0.0000  plane waves:   12648
 k-point 26 :   0.1333 0.1333 0.0000  plane waves:   12658
 k-point 27 :   0.2000 0.1333 0.0000  plane waves:   12641
 k-point 28 :   0.2667 0.1333 0.0000  plane waves:   12642
 k-point 29 :   0.3333 0.1333 0.0000  plane waves:   12668
 k-point 30 :   0.4000 0.1333 0.0000  plane waves:   12675
 k-point 31 :   0.4667 0.1333 0.0000  plane waves:   12681
 k-point 32 :  -0.4667 0.1333 0.0000  plane waves:   12681
 k-point 33 :  -0.4000 0.1333 0.0000  plane waves:   12675
 k-point 34 :  -0.3333 0.1333 0.0000  plane waves:   12668
 k-point 35 :  -0.2667 0.1333 0.0000  plane waves:   12642
 k-point 36 :  -0.2000 0.1333 0.0000  plane waves:   12641
 k-point 37 :  -0.1333 0.1333 0.0000  plane waves:   12658
 k-point 38 :  -0.0667 0.1333 0.0000  plane waves:   12648
 k-point 39 :   0.0000 0.2000 0.0000  plane waves:   12659
 k-point 40 :   0.0667 0.2000 0.0000  plane waves:   12646
 k-point 41 :   0.1333 0.2000 0.0000  plane waves:   12626
 k-point 42 :   0.2000 0.2000 0.0000  plane waves:   12636
 k-point 43 :   0.2667 0.2000 0.0000  plane waves:   12639
 k-point 44 :   0.3333 0.2000 0.0000  plane waves:   12659
 k-point 45 :   0.4000 0.2000 0.0000  plane waves:   12659
 k-point 46 :   0.4667 0.2000 0.0000  plane waves:   12661
 k-point 47 :  -0.4667 0.2000 0.0000  plane waves:   12661
 k-point 48 :  -0.4000 0.2000 0.0000  plane waves:   12659
 k-point 49 :  -0.3333 0.2000 0.0000  plane waves:   12659
 k-point 50 :  -0.2667 0.2000 0.0000  plane waves:   12639
 k-point 51 :  -0.2000 0.2000 0.0000  plane waves:   12636
 k-point 52 :  -0.1333 0.2000 0.0000  plane waves:   12626
 k-point 53 :  -0.0667 0.2000 0.0000  plane waves:   12646
 k-point 54 :   0.0000 0.2667 0.0000  plane waves:   12645
 k-point 55 :   0.0667 0.2667 0.0000  plane waves:   12641
 k-point 56 :   0.1333 0.2667 0.0000  plane waves:   12646
 k-point 57 :   0.2000 0.2667 0.0000  plane waves:   12640
 k-point 58 :   0.2667 0.2667 0.0000  plane waves:   12639
 k-point 59 :   0.3333 0.2667 0.0000  plane waves:   12635
 k-point 60 :   0.4000 0.2667 0.0000  plane waves:   12651
 k-point 61 :   0.4667 0.2667 0.0000  plane waves:   12661
 k-point 62 :  -0.4667 0.2667 0.0000  plane waves:   12661
 k-point 63 :  -0.4000 0.2667 0.0000  plane waves:   12651
 k-point 64 :  -0.3333 0.2667 0.0000  plane waves:   12635
 k-point 65 :  -0.2667 0.2667 0.0000  plane waves:   12639
 k-point 66 :  -0.2000 0.2667 0.0000  plane waves:   12640
 k-point 67 :  -0.1333 0.2667 0.0000  plane waves:   12646
 k-point 68 :  -0.0667 0.2667 0.0000  plane waves:   12641
 k-point 69 :   0.0000 0.3333 0.0000  plane waves:   12623
 k-point 70 :   0.0667 0.3333 0.0000  plane waves:   12627
 k-point 71 :   0.1333 0.3333 0.0000  plane waves:   12626
 k-point 72 :   0.2000 0.3333 0.0000  plane waves:   12644
 k-point 73 :   0.2667 0.3333 0.0000  plane waves:   12647
 k-point 74 :   0.3333 0.3333 0.0000  plane waves:   12636
 k-point 75 :   0.4000 0.3333 0.0000  plane waves:   12650
 k-point 76 :   0.4667 0.3333 0.0000  plane waves:   12650
 k-point 77 :  -0.4667 0.3333 0.0000  plane waves:   12650
 k-point 78 :  -0.4000 0.3333 0.0000  plane waves:   12650
 k-point 79 :  -0.3333 0.3333 0.0000  plane waves:   12636
 k-point 80 :  -0.2667 0.3333 0.0000  plane waves:   12647
 k-point 81 :  -0.2000 0.3333 0.0000  plane waves:   12644
 k-point 82 :  -0.1333 0.3333 0.0000  plane waves:   12626
 k-point 83 :  -0.0667 0.3333 0.0000  plane waves:   12627
 k-point 84 :   0.0000 0.4000 0.0000  plane waves:   12626
 k-point 85 :   0.0667 0.4000 0.0000  plane waves:   12627
 k-point 86 :   0.1333 0.4000 0.0000  plane waves:   12626
 k-point 87 :   0.2000 0.4000 0.0000  plane waves:   12635
 k-point 88 :   0.2667 0.4000 0.0000  plane waves:   12646
 k-point 89 :   0.3333 0.4000 0.0000  plane waves:   12631
 k-point 90 :   0.4000 0.4000 0.0000  plane waves:   12650
 k-point 91 :   0.4667 0.4000 0.0000  plane waves:   12642
 k-point 92 :  -0.4667 0.4000 0.0000  plane waves:   12642
 k-point 93 :  -0.4000 0.4000 0.0000  plane waves:   12650
 k-point 94 :  -0.3333 0.4000 0.0000  plane waves:   12631
 k-point 95 :  -0.2667 0.4000 0.0000  plane waves:   12646
 k-point 96 :  -0.2000 0.4000 0.0000  plane waves:   12635
 k-point 97 :  -0.1333 0.4000 0.0000  plane waves:   12626
 k-point 98 :  -0.0667 0.4000 0.0000  plane waves:   12627
 k-point 99 :   0.0000 0.4667 0.0000  plane waves:   12628
 k-point ** :   0.0667 0.4667 0.0000  plane waves:   12632
 k-point ** :   0.1333 0.4667 0.0000  plane waves:   12650
 k-point ** :   0.2000 0.4667 0.0000  plane waves:   12641
 k-point ** :   0.2667 0.4667 0.0000  plane waves:   12632
 k-point ** :   0.3333 0.4667 0.0000  plane waves:   12650
 k-point ** :   0.4000 0.4667 0.0000  plane waves:   12635
 k-point ** :   0.4667 0.4667 0.0000  plane waves:   12631
 k-point ** :  -0.4667 0.4667 0.0000  plane waves:   12631
 k-point ** :  -0.4000 0.4667 0.0000  plane waves:   12635
 k-point ** :  -0.3333 0.4667 0.0000  plane waves:   12650
 k-point ** :  -0.2667 0.4667 0.0000  plane waves:   12632
 k-point ** :  -0.2000 0.4667 0.0000  plane waves:   12641
 k-point ** :  -0.1333 0.4667 0.0000  plane waves:   12650
 k-point ** :  -0.0667 0.4667 0.0000  plane waves:   12632

 maximum and minimum number of plane-waves per node :       554      496

 maximum number of plane-waves:     12719
 maximum index in each direction: 
   IXMAX=    9   IYMAX=    8   IZMAX=   39
   IXMIN=   -9   IYMIN=   -9   IZMIN=  -39


 parallel 3D FFT for wavefunctions:
    minimum data exchange during FFTs selected (reduces bandwidth)
 parallel 3D FFT for charge:
    minimum data exchange during FFTs selected (reduces bandwidth)


 total amount of memory used by VASP MPI-rank0    63758. kBytes
=======================================================================

   base      :      30000. kBytes
   nonl-proj :      12726. kBytes
   fftplans  :       2678. kBytes
   grid      :       4349. kBytes
   one-center:          8. kBytes
   wavefun   :      13997. kBytes
 
     INWAV:  cpu time    0.0000: real time    0.0000
 Broyden mixing: mesh for mixing (old mesh)
   NGX = 17   NGY = 17   NGZ = 79
  (NGX  = 72   NGY  = 72   NGZ  =320)
  gives a total of  22831 points

 initial charge density was supplied:
 charge density of overlapping atoms calculated
 number of electron      20.0000000 magnetization 
 keeping initial charge density in first step


--------------------------------------------------------------------------------------------------------


 Maximum index for augmentation-charges         2208 (set IRDMAX)


--------------------------------------------------------------------------------------------------------


 First call to EWALD:  gamma=   0.245
 Maximum number of real-space cells 4x 4x 1
 Maximum number of reciprocal cells 2x 2x 7

    FEWALD:  cpu time    0.0011: real time    0.0011


--------------------------------------- Iteration      1(   1)  ---------------------------------------


    POTLOK:  cpu time    0.0587: real time    0.1497
    SETDIJ:  cpu time    0.0070: real time    0.0157
     EDDAV:  cpu time    2.0964: real time    2.1018
       DOS:  cpu time    0.0042: real time    0.0048
    --------------------------------------------
      LOOP:  cpu time    2.1663: real time    2.2720

 eigenvalue-minimisations  :  3164
 total energy-change (2. order) : 0.1435214E+03  (-0.6270777E+03)
 number of electron      20.0000000 magnetization 
 augmentation part       20.0000000 magnetization 

 Free energy of the ion-electron system (eV)
  ---------------------------------------------------
  alpha Z        PSCENC =         9.43346654
  Ewald energy   TEWEN  =      1140.73486085
  -Hartree energ DENC   =     -1742.48493080
  -exchange      EXHF   =         0.00000000
  -V(xc)+E(xc)   XCENC  =      -238.63891709
  PAW double counting   =       799.43158084     -524.17639913
  entropy T*S    EENTRO =        -0.00955089
  eigenvalues    EBANDS =        -3.19656647
  atomic energy  EATOM  =       702.42789710
  Solvation  Ediel_sol  =         0.00000000
  ---------------------------------------------------
  free energy    TOTEN  =       143.52144096 eV

  energy without entropy =      143.53099185  energy(sigma->0) =      143.52621640


--------------------------------------------------------------------------------------------------------




--------------------------------------- Iteration      1(   2)  ---------------------------------------


     EDDAV:  cpu time    3.0734: real time    3.0771
       DOS:  cpu time    0.0042: real time    0.0042
    --------------------------------------------
      LOOP:  cpu time    3.0777: real time    3.0814

 eigenvalue-minimisations  :  5230
 total energy-change (2. order) :-0.1387155E+03  (-0.1344259E+03)
 number of electron      20.0000000 magnetization 
 augmentation part       20.0000000 magnetization 

 Free energy of the ion-electron system (eV)
  ---------------------------------------------------
  alpha Z        PSCENC =         9.43346654
  Ewald energy   TEWEN  =      1140.73486085
  -Hartree energ DENC   =     -1742.48493080
  -exchange      EXHF   =         0.00000000
  -V(xc)+E(xc)   XCENC  =      -238.63891709
  PAW double counting   =       799.43158084     -524.17639913
  entropy T*S    EENTRO =        -0.00215567
  eigenvalues    EBANDS =      -141.91945586
  atomic energy  EATOM  =       702.42789710
  Solvation  Ediel_sol  =         0.00000000
  ---------------------------------------------------
  free energy    TOTEN  =         4.80594679 eV

  energy without entropy =        4.80810246  energy(sigma->0) =        4.80702462


--------------------------------------------------------------------------------------------------------




--------------------------------------- Iteration      1(   3)  ---------------------------------------


     EDDAV:  cpu time    2.4664: real time    2.4693
       DOS:  cpu time    0.0029: real time    0.0029
    --------------------------------------------
      LOOP:  cpu time    2.4693: real time    2.4722

 eigenvalue-minimisations  :  4010
 total energy-change (2. order) :-0.2077753E+02  (-0.2059442E+02)
 number of electron      20.0000000 magnetization 
 augmentation part       20.0000000 magnetization 

 Free energy of the ion-electron system (eV)
  ---------------------------------------------------
  alpha Z        PSCENC =         9.43346654
  Ewald energy   TEWEN  =      1140.73486085
  -Hartree energ DENC   =     -1742.48493080
  -exchange      EXHF   =         0.00000000
  -V(xc)+E(xc)   XCENC  =      -238.63891709
  PAW double counting   =       799.43158084     -524.17639913
  entropy T*S    EENTRO =        -0.00000000
  eigenvalues    EBANDS =      -162.69914254
  atomic energy  EATOM  =       702.42789710
  Solvation  Ediel_sol  =         0.00000000
  ---------------------------------------------------
  free energy    TOTEN  =       -15.97158422 eV

  energy without entropy =      -15.97158422  energy(sigma->0) =      -15.97158422


--------------------------------------------------------------------------------------------------------




--------------------------------------- Iteration      1(   4)  ---------------------------------------


     EDDAV:  cpu time    2.6956: real time    2.6989
       DOS:  cpu time    0.0029: real time    0.0029
    --------------------------------------------
      LOOP:  cpu time    2.6986: real time    2.7018

 eigenvalue-minimisations  :  4570
 total energy-change (2. order) :-0.8138942E+00  (-0.8113214E+00)
 number of electron      20.0000000 magnetization 
 augmentation part       20.0000000 magnetization 

 Free energy of the ion-electron system (eV)
  ---------------------------------------------------
  alpha Z        PSCENC =         9.43346654
  Ewald energy   TEWEN  =      1140.73486085
  -Hartree energ DENC   =     -1742.48493080
  -exchange      EXHF   =         0.00000000
  -V(xc)+E(xc)   XCENC  =      -238.63891709
  PAW double counting   =       799.43158084     -524.17639913
  entropy T*S    EENTRO =        -0.00000000
  eigenvalues    EBANDS =      -163.51303677
  atomic energy  EATOM  =       702.42789710
  Solvation  Ediel_sol  =         0.00000000
  ---------------------------------------------------
  free energy    TOTEN  =       -16.78547845 eV

  energy without entropy =      -16.78547845  energy(sigma->0) =      -16.78547845


--------------------------------------------------------------------------------------------------------




--------------------------------------- Iteration      1(   5)  ---------------------------------------


     EDDAV:  cpu time    2.4546: real time    2.4576
       DOS:  cpu time    0.0029: real time    0.0029
    CHARGE:  cpu time    0.1668: real time    0.1669
    MIXING:  cpu time    0.0033: real time    0.0033
    --------------------------------------------
      LOOP:  cpu time    2.6277: real time    2.6307

 eigenvalue-minimisations  :  4076
 total energy-change (2. order) :-0.1758052E-01  (-0.1757010E-01)
 number of electron      20.0000001 magnetization 
 augmentation part       -4.5210341 magnetization 

 Broyden mixing:
  rms(total) = 0.44805E+00    rms(broyden)= 0.44805E+00
  rms(prec ) = 0.48966E+00
  weight for this iteration     100.00

 Free energy of the ion-electron system (eV)
  ---------------------------------------------------
  alpha Z        PSCENC =         9.43346654
  Ewald energy   TEWEN  =      1140.73486085
  -Hartree energ DENC   =     -1742.48493080
  -exchange      EXHF   =         0.00000000
  -V(xc)+E(xc)   XCENC  =      -238.63891709
  PAW double counting   =       799.43158084     -524.17639913
  entropy T*S    EENTRO =        -0.00000000
  eigenvalues    EBANDS =      -163.53061729
  atomic energy  EATOM  =       702.42789710
  Solvation  Ediel_sol  =         0.00000000
  ---------------------------------------------------
  free energy    TOTEN  =       -16.80305897 eV

  energy without entropy =      -16.80305897  energy(sigma->0) =      -16.80305897


--------------------------------------------------------------------------------------------------------




--------------------------------------- Iteration      1(   6)  ---------------------------------------


    POTLOK:  cpu time    0.0361: real time    0.0361
    SETDIJ:  cpu time    0.0032: real time    0.0036
     EDDAV:  cpu time    2.4526: real time    2.4555
       DOS:  cpu time    0.0031: real time    0.0031
    CHARGE:  cpu time    0.1674: real time    0.1679
    MIXING:  cpu time    0.0012: real time    0.0014
    --------------------------------------------
      LOOP:  cpu time    2.6635: real time    2.6676

 eigenvalue-minimisations  :  3928
 total energy-change (2. order) : 0.5002747E+00  (-0.1286429E+00)
 number of electron      20.0000001 magnetization 
 augmentation part       -4.4880740 magnetization 

 Broyden mixing:
  rms(total) = 0.27416E+00    rms(broyden)= 0.27416E+00
  rms(prec ) = 0.28338E+00
  weight for this iteration     100.00

 eigenvalues of (default mixing * dielectric matrix)
  average eigenvalue GAMMA=   1.7708
  1.7708

 Free energy of the ion-electron system (eV)
  ---------------------------------------------------
  alpha Z        PSCENC =         9.43346654
  Ewald energy   TEWEN  =      1140.73486085
  -Hartree energ DENC   =     -1750.39835694
  -exchange      EXHF   =         0.00000000
  -V(xc)+E(xc)   XCENC  =      -238.15370768
  PAW double counting   =       922.36596114     -647.28847265
  entropy T*S    EENTRO =        -0.00000000
  eigenvalues    EBANDS =      -155.42443266
  atomic energy  EATOM  =       702.42789710
  Solvation  Ediel_sol  =         0.00000000
  ---------------------------------------------------
  free energy    TOTEN  =       -16.30278430 eV

  energy without entropy =      -16.30278430  energy(sigma->0) =      -16.30278430


--------------------------------------------------------------------------------------------------------




--------------------------------------- Iteration      1(   7)  ---------------------------------------


    POTLOK:  cpu time    0.0379: real time    0.0379
    SETDIJ:  cpu time    0.0031: real time    0.0031
     EDDAV:  cpu time    2.5013: real time    2.5042
       DOS:  cpu time    0.0031: real time    0.0031
    CHARGE:  cpu time    0.1659: real time    0.1660
    MIXING:  cpu time    0.0011: real time    0.0013
    --------------------------------------------
      LOOP:  cpu time    2.7124: real time    2.7156

 eigenvalue-minimisations  :  4132
 total energy-change (2. order) : 0.2657200E-01  (-0.3089359E-01)
 number of electron      20.0000001 magnetization 
 augmentation part       -4.4805714 magnetization 

 Broyden mixing:
  rms(total) = 0.10588E+00    rms(broyden)= 0.10588E+00
  rms(prec ) = 0.11125E+00
  weight for this iteration     100.00

 eigenvalues of (default mixing * dielectric matrix)
  average eigenvalue GAMMA=   1.7258
  1.3647  2.0870

 Free energy of the ion-electron system (eV)
  ---------------------------------------------------
  alpha Z        PSCENC =         9.43346654
  Ewald energy   TEWEN  =      1140.73486085
  -Hartree energ DENC   =     -1755.29066086
  -exchange      EXHF   =         0.00000000
  -V(xc)+E(xc)   XCENC  =      -237.83665554
  PAW double counting   =      1059.11295304     -784.16697038
  entropy T*S    EENTRO =        -0.00000000
  eigenvalues    EBANDS =      -150.69110306
  atomic energy  EATOM  =       702.42789710
  Solvation  Ediel_sol  =         0.00000000
  ---------------------------------------------------
  free energy    TOTEN  =       -16.27621230 eV

  energy without entropy =      -16.27621230  energy(sigma->0) =      -16.27621230


--------------------------------------------------------------------------------------------------------




--------------------------------------- Iteration      1(   8)  ---------------------------------------


    POTLOK:  cpu time    0.0356: real time    0.0360
    SETDIJ:  cpu time    0.0031: real time    0.0031
     EDDAV:  cpu time    2.6531: real time    2.6562
       DOS:  cpu time    0.0030: real time    0.0030
    CHARGE:  cpu time    0.1659: real time    0.1660
    MIXING:  cpu time    0.0012: real time    0.0012
    --------------------------------------------
      LOOP:  cpu time    2.8618: real time    2.8654

 eigenvalue-minimisations  :  4488
 total energy-change (2. order) : 0.9354159E-02  (-0.3718417E-02)
 number of electron      20.0000001 magnetization 
 augmentation part       -4.4847798 magnetization 

 Broyden mixing:
  rms(total) = 0.20290E-01    rms(broyden)= 0.20290E-01
  rms(prec ) = 0.27733E-01
  weight for this iteration     100.00

 eigenvalues of (default mixing * dielectric matrix)
  average eigenvalue GAMMA=   1.6948
  2.5131  1.2856  1.2856

 Free energy of the ion-electron system (eV)
  ---------------------------------------------------
  alpha Z        PSCENC =         9.43346654
  Ewald energy   TEWEN  =      1140.73486085
  -Hartree energ DENC   =     -1757.02016942
  -exchange      EXHF   =         0.00000000
  -V(xc)+E(xc)   XCENC  =      -237.75515367
  PAW double counting   =      1125.58177539     -850.67400221
  entropy T*S    EENTRO =        -0.00000000
  eigenvalues    EBANDS =      -148.99553272
  atomic energy  EATOM  =       702.42789710
  Solvation  Ediel_sol  =         0.00000000
  ---------------------------------------------------
  free energy    TOTEN  =       -16.26685814 eV

  energy without entropy =      -16.26685814  energy(sigma->0) =      -16.26685814


--------------------------------------------------------------------------------------------------------




--------------------------------------- Iteration      1(   9)  ---------------------------------------


    POTLOK:  cpu time    0.0360: real time    0.0361
    SETDIJ:  cpu time    0.0030: real time    0.0031
     EDDAV:  cpu time    2.5990: real time    2.6020
       DOS:  cpu time    0.0031: real time    0.0031
    CHARGE:  cpu time    0.1883: real time    0.1884
    MIXING:  cpu time    0.0013: real time    0.0013
    --------------------------------------------
      LOOP:  cpu time    2.8307: real time    2.8339

 eigenvalue-minimisations  :  4352
 total energy-change (2. order) : 0.3669392E-02  (-0.6481114E-03)
 number of electron      20.0000001 magnetization 
 augmentation part       -4.4829622 magnetization 

 Broyden mixing:
  rms(total) = 0.99934E-02    rms(broyden)= 0.99934E-02
  rms(prec ) = 0.15614E-01
  weight for this iteration     100.00

 eigenvalues of (default mixing * dielectric matrix)
  average eigenvalue GAMMA=   1.7166
  2.2432  2.2432  1.1899  1.1899

 Free energy of the ion-electron system (eV)
  ---------------------------------------------------
  alpha Z        PSCENC =         9.43346654
  Ewald energy   TEWEN  =      1140.73486085
  -Hartree energ DENC   =     -1758.95943883
  -exchange      EXHF   =         0.00000000
  -V(xc)+E(xc)   XCENC  =      -237.68315982
  PAW double counting   =      1143.00229527     -868.10577153
  entropy T*S    EENTRO =        -0.00000000
  eigenvalues    EBANDS =      -147.11333832
  atomic energy  EATOM  =       702.42789710
  Solvation  Ediel_sol  =         0.00000000
  ---------------------------------------------------
  free energy    TOTEN  =       -16.26318875 eV

  energy without entropy =      -16.26318875  energy(sigma->0) =      -16.26318875


--------------------------------------------------------------------------------------------------------




--------------------------------------- Iteration      1(  10)  ---------------------------------------


    POTLOK:  cpu time    0.0365: real time    0.0366
    SETDIJ:  cpu time    0.0031: real time    0.0031
     EDDAV:  cpu time    2.5963: real time    2.5993
       DOS:  cpu time    0.0031: real time    0.0031
    CHARGE:  cpu time    0.1662: real time    0.1663
    MIXING:  cpu time    0.0013: real time    0.0012
    --------------------------------------------
      LOOP:  cpu time    2.8065: real time    2.8097

 eigenvalue-minimisations  :  4352
 total energy-change (2. order) : 0.1324850E-02  (-0.1248485E-03)
 number of electron      20.0000001 magnetization 
 augmentation part       -4.4816827 magnetization 

 Broyden mixing:
  rms(total) = 0.50271E-02    rms(broyden)= 0.50271E-02
  rms(prec ) = 0.92918E-02
  weight for this iteration     100.00

 eigenvalues of (default mixing * dielectric matrix)
  average eigenvalue GAMMA=   1.8534
  3.3086  2.5904  1.2297  1.2297  0.9086

 Free energy of the ion-electron system (eV)
  ---------------------------------------------------
  alpha Z        PSCENC =         9.43346654
  Ewald energy   TEWEN  =      1140.73486085
  -Hartree energ DENC   =     -1760.25526159
  -exchange      EXHF   =         0.00000000
  -V(xc)+E(xc)   XCENC  =      -237.67095689
  PAW double counting   =      1132.92946151     -858.02321715
  entropy T*S    EENTRO =        -0.00000000
  eigenvalues    EBANDS =      -145.83811426
  atomic energy  EATOM  =       702.42789710
  Solvation  Ediel_sol  =         0.00000000
  ---------------------------------------------------
  free energy    TOTEN  =       -16.26186390 eV

  energy without entropy =      -16.26186390  energy(sigma->0) =      -16.26186390


--------------------------------------------------------------------------------------------------------




--------------------------------------- Iteration      1(  11)  ---------------------------------------


    POTLOK:  cpu time    0.0363: real time    0.0364
    SETDIJ:  cpu time    0.0031: real time    0.0031
     EDDAV:  cpu time    2.5911: real time    2.5940
       DOS:  cpu time    0.0031: real time    0.0031
    CHARGE:  cpu time    0.1658: real time    0.1659
    MIXING:  cpu time    0.0015: real time    0.0015
    --------------------------------------------
      LOOP:  cpu time    2.8009: real time    2.8039

 eigenvalue-minimisations  :  4328
 total energy-change (2. order) : 0.7247509E-03  (-0.1210052E-03)
 number of electron      20.0000001 magnetization 
 augmentation part       -4.4803346 magnetization 

 Broyden mixing:
  rms(total) = 0.31845E-02    rms(broyden)= 0.31845E-02
  rms(prec ) = 0.49652E-02
  weight for this iteration     100.00

 eigenvalues of (default mixing * dielectric matrix)
  average eigenvalue GAMMA=   1.8256
  3.3921  2.3914  1.9053  1.1865  1.1865  0.8916

 Free energy of the ion-electron system (eV)
  ---------------------------------------------------
  alpha Z        PSCENC =         9.43346654
  Ewald energy   TEWEN  =      1140.73486085
  -Hartree energ DENC   =     -1761.81808416
  -exchange      EXHF   =         0.00000000
  -V(xc)+E(xc)   XCENC  =      -237.63996876
  PAW double counting   =      1134.41214568     -859.50492847
  entropy T*S    EENTRO =        -0.00000000
  eigenvalues    EBANDS =      -144.30652794
  atomic energy  EATOM  =       702.42789710
  Solvation  Ediel_sol  =         0.00000000
  ---------------------------------------------------
  free energy    TOTEN  =       -16.26113915 eV

  energy without entropy =      -16.26113915  energy(sigma->0) =      -16.26113915


--------------------------------------------------------------------------------------------------------




--------------------------------------- Iteration      1(  12)  ---------------------------------------


    POTLOK:  cpu time    0.0363: real time    0.0364
    SETDIJ:  cpu time    0.0030: real time    0.0030
     EDDAV:  cpu time    2.2888: real time    2.2914
       DOS:  cpu time    0.0031: real time    0.0031
    CHARGE:  cpu time    0.1657: real time    0.1658
    MIXING:  cpu time    0.0015: real time    0.0015
    --------------------------------------------
      LOOP:  cpu time    2.4984: real time    2.5011

 eigenvalue-minimisations  :  3650
 total energy-change (2. order) :-0.8069234E-03  (-0.2684603E-04)
 number of electron      20.0000001 magnetization 
 augmentation part       -4.4797041 magnetization 

 Broyden mixing:
  rms(total) = 0.16804E-02    rms(broyden)= 0.16804E-02
  rms(prec ) = 0.27054E-02
  weight for this iteration     100.00

 eigenvalues of (default mixing * dielectric matrix)
  average eigenvalue GAMMA=   2.0627
  4.6090  3.0611  2.4952  1.1981  1.1981  1.0285  0.8491

 Free energy of the ion-electron system (eV)
  ---------------------------------------------------
  alpha Z        PSCENC =         9.43346654
  Ewald energy   TEWEN  =      1140.73486085
  -Hartree energ DENC   =     -1762.46422898
  -exchange      EXHF   =         0.00000000
  -V(xc)+E(xc)   XCENC  =      -237.63062553
  PAW double counting   =      1135.88335137     -860.97837627
  entropy T*S    EENTRO =        -0.00000000
  eigenvalues    EBANDS =      -143.66829116
  atomic energy  EATOM  =       702.42789710
  Solvation  Ediel_sol  =         0.00000000
  ---------------------------------------------------
  free energy    TOTEN  =       -16.26194607 eV

  energy without entropy =      -16.26194607  energy(sigma->0) =      -16.26194607


--------------------------------------------------------------------------------------------------------




--------------------------------------- Iteration      1(  13)  ---------------------------------------


    POTLOK:  cpu time    0.0366: real time    0.0367
    SETDIJ:  cpu time    0.0030: real time    0.0030
     EDDAV:  cpu time    2.3446: real time    2.3471
       DOS:  cpu time    0.0031: real time    0.0031
    CHARGE:  cpu time    0.1659: real time    0.1659
    MIXING:  cpu time    0.0013: real time    0.0013
    --------------------------------------------
      LOOP:  cpu time    2.5545: real time    2.5572

 eigenvalue-minimisations  :  3716
 total energy-change (2. order) :-0.4398855E-03  (-0.7628326E-05)
 number of electron      20.0000001 magnetization 
 augmentation part       -4.4794901 magnetization 

 Broyden mixing:
  rms(total) = 0.10796E-02    rms(broyden)= 0.10796E-02
  rms(prec ) = 0.14689E-02
  weight for this iteration     100.00

 eigenvalues of (default mixing * dielectric matrix)
  average eigenvalue GAMMA=   2.2393
  5.6718  3.2844  2.4899  2.1768  1.1579  1.1579  1.0630  0.9125

 Free energy of the ion-electron system (eV)
  ---------------------------------------------------
  alpha Z        PSCENC =         9.43346654
  Ewald energy   TEWEN  =      1140.73486085
  -Hartree energ DENC   =     -1762.88121667
  -exchange      EXHF   =         0.00000000
  -V(xc)+E(xc)   XCENC  =      -237.62892208
  PAW double counting   =      1134.92225448     -860.01628019
  entropy T*S    EENTRO =        -0.00000000
  eigenvalues    EBANDS =      -143.25444599
  atomic energy  EATOM  =       702.42789710
  Solvation  Ediel_sol  =         0.00000000
  ---------------------------------------------------
  free energy    TOTEN  =       -16.26238595 eV

  energy without entropy =      -16.26238595  energy(sigma->0) =      -16.26238595


--------------------------------------------------------------------------------------------------------




--------------------------------------- Iteration      1(  14)  ---------------------------------------


    POTLOK:  cpu time    0.0375: real time    0.0377
    SETDIJ:  cpu time    0.0031: real time    0.0031
     EDDAV:  cpu time    2.3860: real time    2.3886
       DOS:  cpu time    0.0031: real time    0.0031
    CHARGE:  cpu time    0.1663: real time    0.1664
    MIXING:  cpu time    0.0015: real time    0.0015
    --------------------------------------------
      LOOP:  cpu time    2.5975: real time    2.6003

 eigenvalue-minimisations  :  3878
 total energy-change (2. order) :-0.2688938E-03  (-0.4013893E-05)
 number of electron      20.0000001 magnetization 
 augmentation part       -4.4794605 magnetization 

 Broyden mixing:
  rms(total) = 0.38747E-03    rms(broyden)= 0.38747E-03
  rms(prec ) = 0.60939E-03
  weight for this iteration     100.00

 eigenvalues of (default mixing * dielectric matrix)
  average eigenvalue GAMMA=   2.2470
  6.7511  3.0749  2.5368  2.5368  1.1799  1.1799  0.9845  0.9895  0.9895

 Free energy of the ion-electron system (eV)
  ---------------------------------------------------
  alpha Z        PSCENC =         9.43346654
  Ewald energy   TEWEN  =      1140.73486085
  -Hartree energ DENC   =     -1763.08982511
  -exchange      EXHF   =         0.00000000
  -V(xc)+E(xc)   XCENC  =      -237.62879056
  PAW double counting   =      1135.15413248     -860.24765592
  entropy T*S    EENTRO =        -0.00000000
  eigenvalues    EBANDS =      -143.04674024
  atomic energy  EATOM  =       702.42789710
  Solvation  Ediel_sol  =         0.00000000
  ---------------------------------------------------
  free energy    TOTEN  =       -16.26265485 eV

  energy without entropy =      -16.26265485  energy(sigma->0) =      -16.26265485


--------------------------------------------------------------------------------------------------------




--------------------------------------- Iteration      1(  15)  ---------------------------------------


    POTLOK:  cpu time    0.0374: real time    0.0376
    SETDIJ:  cpu time    0.0031: real time    0.0031
     EDDAV:  cpu time    2.3889: real time    2.3916
       DOS:  cpu time    0.0031: real time    0.0031
    CHARGE:  cpu time    0.1680: real time    0.1681
    MIXING:  cpu time    0.0015: real time    0.0015
    --------------------------------------------
      LOOP:  cpu time    2.6019: real time    2.6048

 eigenvalue-minimisations  :  3892
 total energy-change (2. order) :-0.5848250E-04  (-0.1973157E-06)
 number of electron      20.0000001 magnetization 
 augmentation part       -4.4794765 magnetization 

 Broyden mixing:
  rms(total) = 0.31207E-03    rms(broyden)= 0.31207E-03
  rms(prec ) = 0.48780E-03
  weight for this iteration     100.00

 eigenvalues of (default mixing * dielectric matrix)
  average eigenvalue GAMMA=   2.3587
  6.5678  4.2778  2.6952  2.6952  1.9962  1.1416  1.1416  1.1961  0.9377  0.9377

 Free energy of the ion-electron system (eV)
  ---------------------------------------------------
  alpha Z        PSCENC =         9.43346654
  Ewald energy   TEWEN  =      1140.73486085
  -Hartree energ DENC   =     -1763.10546175
  -exchange      EXHF   =         0.00000000
  -V(xc)+E(xc)   XCENC  =      -237.62917094
  PAW double counting   =      1134.95783937     -860.05122089
  entropy T*S    EENTRO =        -0.00000000
  eigenvalues    EBANDS =      -143.03092362
  atomic energy  EATOM  =       702.42789710
  Solvation  Ediel_sol  =         0.00000000
  ---------------------------------------------------
  free energy    TOTEN  =       -16.26271333 eV

  energy without entropy =      -16.26271333  energy(sigma->0) =      -16.26271333


--------------------------------------------------------------------------------------------------------




--------------------------------------- Iteration      1(  16)  ---------------------------------------


    POTLOK:  cpu time    0.0365: real time    0.0366
    SETDIJ:  cpu time    0.0031: real time    0.0031
     EDDAV:  cpu time    2.2634: real time    2.2658
       DOS:  cpu time    0.0031: real time    0.0031
    CHARGE:  cpu time    0.1662: real time    0.1663
    MIXING:  cpu time    0.0017: real time    0.0017
    --------------------------------------------
      LOOP:  cpu time    2.4739: real time    2.4765

 eigenvalue-minimisations  :  3534
 total energy-change (2. order) :-0.4462828E-04  (-0.8214244E-06)
 number of electron      20.0000001 magnetization 
 augmentation part       -4.4794898 magnetization 

 Broyden mixing:
  rms(total) = 0.11738E-03    rms(broyden)= 0.11738E-03
  rms(prec ) = 0.21894E-03
  weight for this iteration     100.00

 eigenvalues of (default mixing * dielectric matrix)
  average eigenvalue GAMMA=   2.2841
  6.8103  4.5126  2.6454  2.6454  2.2751  1.1535  1.1535  1.1847  0.9399  0.9399
  0.8644

 Free energy of the ion-electron system (eV)
  ---------------------------------------------------
  alpha Z        PSCENC =         9.43346654
  Ewald energy   TEWEN  =      1140.73486085
  -Hartree energ DENC   =     -1763.15698020
  -exchange      EXHF   =         0.00000000
  -V(xc)+E(xc)   XCENC  =      -237.62923452
  PAW double counting   =      1134.84158511     -859.93498639
  entropy T*S    EENTRO =        -0.00000000
  eigenvalues    EBANDS =      -142.97936646
  atomic energy  EATOM  =       702.42789710
  Solvation  Ediel_sol  =         0.00000000
  ---------------------------------------------------
  free energy    TOTEN  =       -16.26275796 eV

  energy without entropy =      -16.26275796  energy(sigma->0) =      -16.26275796


--------------------------------------------------------------------------------------------------------




--------------------------------------- Iteration      1(  17)  ---------------------------------------


    POTLOK:  cpu time    0.0366: real time    0.0367
    SETDIJ:  cpu time    0.0032: real time    0.0036
     EDDAV:  cpu time    2.0957: real time    2.0980
       DOS:  cpu time    0.0031: real time    0.0031
    CHARGE:  cpu time    0.1659: real time    0.1660
    MIXING:  cpu time    0.0017: real time    0.0017
    --------------------------------------------
[...]
  band No.  band energies     occupation 
      1     -14.5749      2.00000
      2     -14.3252      2.00000
      3      -8.8554      2.00000
      4      -8.6361      2.00000
      5      -6.0603      2.00000
      6      -5.1240      2.00000
      7      -4.8353      2.00000
      8      -4.1198      2.00000
      9      -3.8717      2.00000
     10      -3.1068      2.00000
     11       0.0963      0.00000
     12       1.0430      0.00000
     13       1.1333      0.00000
     14       1.5506      0.00000

 k-point    96 :      -0.2000    0.4000    0.0000
  band No.  band energies     occupation 
      1     -14.6430      2.00000
      2     -14.3472      2.00000
      3      -9.0174      2.00000
      4      -8.7378      2.00000
      5      -5.6285      2.00000
      6      -4.8469      2.00000
      7      -4.5626      2.00000
      8      -3.9897      2.00000
      9      -3.5097      2.00000
     10      -2.7385      2.00000
     11      -0.3667      0.00000
     12       0.5367      0.00000
     13       0.6914      0.00000
     14       1.1892      0.00000

 k-point    97 :      -0.1333    0.4000    0.0000
  band No.  band energies     occupation 
      1     -14.6974      2.00000
      2     -14.3691      2.00000
      3      -9.1431      2.00000
      4      -8.8213      2.00000
      5      -5.1184      2.00000
      6      -4.7887      2.00000
      7      -4.1510      2.00000
      8      -3.9455      2.00000
      9      -2.9572      2.00000
     10      -2.5189      2.00000
     11      -0.6328      0.00000
     12      -0.1797      0.00000
     13       0.4759      0.00000
     14       0.7584      0.00000

 k-point    98 :      -0.0667    0.4000    0.0000
  band No.  band energies     occupation 
      1     -14.7325      2.00000
      2     -14.3849      2.00000
      3      -9.2218      2.00000
      4      -8.8756      2.00000
      5      -4.7931      2.00000
      6      -4.5947      2.00000
      7      -3.9669      2.00000
      8      -3.7487      2.00000
      9      -2.6813      2.00000
     10      -2.3994      2.00000
     11      -0.7650      0.00000
     12      -0.3915      0.00000
     13       0.2157      0.00000
     14       0.3592      0.00000

 k-point    99 :       0.0000    0.4667    0.0000
  band No.  band energies     occupation 
      1     -14.6035      2.00000
      2     -14.4818      2.00000
      3      -9.2322      2.00000
      4      -9.1106      2.00000
      5      -4.5595      2.00000
      6      -4.3455      2.00000
      7      -3.8648      2.00000
      8      -3.6742      2.00000
      9      -2.5902      2.00000
     10      -2.2576      2.00000
     11      -0.9007      0.00000
     12      -0.4734      0.00000
     13      -0.0698      0.00000
     14       0.1246      0.00000

 k-point   100 :       0.0667    0.4667    0.0000
  band No.  band energies     occupation 
      1     -14.5936      2.00000
      2     -14.4741      2.00000
      3      -9.2048      2.00000
      4      -9.0859      2.00000
      5      -4.5730      2.00000
      6      -4.4507      2.00000
      7      -4.0192      2.00000
      8      -3.8806      2.00000
      9      -2.5099      2.00000
     10      -2.4092      2.00000
     11      -0.8044      0.00000
     12      -0.6947      0.00000
     13       0.2771      0.00000
     14       0.5795      0.00000

 k-point   101 :       0.1333    0.4667    0.0000
  band No.  band energies     occupation 
      1     -14.5650      2.00000
      2     -14.4522      2.00000
      3      -9.1237      2.00000
      4      -9.0133      2.00000
      5      -4.8473      2.00000
      6      -4.6764      2.00000
      7      -4.2517      2.00000
      8      -4.1445      2.00000
      9      -2.8629      2.00000
     10      -2.6629      2.00000
     11      -0.5585      0.00000
     12      -0.3291      0.00000
     13       0.7723      0.00000
     14       0.8669      0.00000

 k-point   102 :       0.2000    0.4667    0.0000
  band No.  band energies     occupation 
      1     -14.5214      2.00000
      2     -14.4199      2.00000
      3      -8.9929      2.00000
      4      -8.8971      2.00000
      5      -5.3526      2.00000
      6      -5.0366      2.00000
      7      -4.4492      2.00000
      8      -4.2220      2.00000
      9      -3.3676      2.00000
     10      -3.0758      2.00000
     11      -0.0473      0.00000
     12       0.3093      0.00000
     13       0.9929      0.00000
     14       1.2183      0.00000

 k-point   103 :       0.2667    0.4667    0.0000
  band No.  band energies     occupation 
      1     -14.4688      2.00000
      2     -14.3831      2.00000
      3      -8.8207      2.00000
      4      -8.7462      2.00000
      5      -5.8222      2.00000
      6      -5.4879      2.00000
      7      -4.6406      2.00000
      8      -4.3852      2.00000
      9      -3.7076      2.00000
     10      -3.4397      2.00000
     11       0.4588      0.00000
     12       0.8146      0.00000
     13       1.3846      0.00000
     14       1.6351      0.00000

 k-point   104 :       0.3333    0.4667    0.0000
  band No.  band energies     occupation 
      1     -14.4146      2.00000
      2     -14.3494      2.00000
      3      -8.6241      2.00000
      4      -8.5767      2.00000
      5      -6.2062      2.00000
      6      -5.9016      2.00000
      7      -4.9296      2.00000
      8      -4.6772      2.00000
      9      -3.8204      2.00000
     10      -3.6254      2.00000
     11       0.8054      0.00000
     12       1.0771      0.00000
     13       1.9203      0.00000
     14       2.1981      0.00000

 k-point   105 :       0.4000    0.4667    0.0000
  band No.  band energies     occupation 
      1     -14.3673      2.00000
      2     -14.3263      2.00000
      3      -8.4368      2.00000
      4      -8.4165      2.00000
      5      -6.4703      2.00000
      6      -6.2466      2.00000
      7      -5.1791      2.00000
      8      -4.9909      2.00000
      9      -3.8177      2.00000
     10      -3.6995      2.00000
     11       1.0418      0.00000
     12       1.2110      0.00000
     13       2.3937      0.00000
     14       2.6233      0.00000

 k-point   106 :       0.4667    0.4667    0.0000
  band No.  band energies     occupation 
      1     -14.3342      2.00000
      2     -14.3202      2.00000
      3      -8.3152      2.00000
      4      -8.3116      2.00000
      5      -6.5738      2.00000
      6      -6.4894      2.00000
      7      -5.2833      2.00000
      8      -5.2134      2.00000
      9      -3.7818      2.00000
     10      -3.7420      2.00000
     11       1.1946      0.00000
     12       1.2521      0.00000
     13       2.6482      0.00000
     14       2.7697      0.00000

 k-point   107 :      -0.4667    0.4667    0.0000
  band No.  band energies     occupation 
      1     -14.3342      2.00000
      2     -14.3202      2.00000
      3      -8.3152      2.00000
      4      -8.3116      2.00000
      5      -6.5738      2.00000
      6      -6.4894      2.00000
      7      -5.2833      2.00000
      8      -5.2134      2.00000
      9      -3.7818      2.00000
     10      -3.7420      2.00000
     11       1.1946      0.00000
     12       1.2521      0.00000
     13       2.6482      0.00000
     14       2.7697      0.00000

 k-point   108 :      -0.4000    0.4667    0.0000
  band No.  band energies     occupation 
      1     -14.3673      2.00000
      2     -14.3263      2.00000
      3      -8.4368      2.00000
      4      -8.4165      2.00000
      5      -6.4703      2.00000
      6      -6.2466      2.00000
      7      -5.1791      2.00000
      8      -4.9909      2.00000
      9      -3.8177      2.00000
     10      -3.6995      2.00000
     11       1.0418      0.00000
     12       1.2110      0.00000
     13       2.3937      0.00000
     14       2.6233      0.00000

 k-point   109 :      -0.3333    0.4667    0.0000
  band No.  band energies     occupation 
      1     -14.4146      2.00000
      2     -14.3494      2.00000
      3      -8.6241      2.00000
      4      -8.5767      2.00000
      5      -6.2062      2.00000
      6      -5.9016      2.00000
      7      -4.9296      2.00000
      8      -4.6772      2.00000
      9      -3.8204      2.00000
     10      -3.6254      2.00000
     11       0.8054      0.00000
     12       1.0771      0.00000
     13       1.9203      0.00000
     14       2.1981      0.00000

 k-point   110 :      -0.2667    0.4667    0.0000
  band No.  band energies     occupation 
      1     -14.4688      2.00000
      2     -14.3831      2.00000
      3      -8.8207      2.00000
      4      -8.7462      2.00000
      5      -5.8222      2.00000
      6      -5.4879      2.00000
      7      -4.6406      2.00000
      8      -4.3852      2.00000
      9      -3.7076      2.00000
     10      -3.4397      2.00000
     11       0.4588      0.00000
     12       0.8146      0.00000
     13       1.3846      0.00000
     14       1.6351      0.00000

 k-point   111 :      -0.2000    0.4667    0.0000
  band No.  band energies     occupation 
      1     -14.5214      2.00000
      2     -14.4199      2.00000
      3      -8.9929      2.00000
      4      -8.8971      2.00000
      5      -5.3526      2.00000
      6      -5.0366      2.00000
      7      -4.4492      2.00000
      8      -4.2220      2.00000
      9      -3.3676      2.00000
     10      -3.0758      2.00000
     11      -0.0473      0.00000
     12       0.3093      0.00000
     13       0.9929      0.00000
     14       1.2183      0.00000

 k-point   112 :      -0.1333    0.4667    0.0000
  band No.  band energies     occupation 
      1     -14.5650      2.00000
      2     -14.4522      2.00000
      3      -9.1237      2.00000
      4      -9.0133      2.00000
      5      -4.8473      2.00000
      6      -4.6764      2.00000
      7      -4.2517      2.00000
      8      -4.1445      2.00000
      9      -2.8629      2.00000
     10      -2.6629      2.00000
     11      -0.5585      0.00000
     12      -0.3291      0.00000
     13       0.7723      0.00000
     14       0.8669      0.00000

 k-point   113 :      -0.0667    0.4667    0.0000
  band No.  band energies     occupation 
      1     -14.5936      2.00000
      2     -14.4741      2.00000
      3      -9.2048      2.00000
      4      -9.0859      2.00000
      5      -4.5730      2.00000
      6      -4.4507      2.00000
      7      -4.0192      2.00000
      8      -3.8806      2.00000
      9      -2.5099      2.00000
     10      -2.4092      2.00000
     11      -0.8044      0.00000
     12      -0.6947      0.00000
     13       0.2771      0.00000
     14       0.5795      0.00000


--------------------------------------------------------------------------------------------------------


 soft charge-density along one line, spin component           1
         0         1         2         3         4         5         6         7         8         9
 total charge-density along one line
 
 pseudopotential strength for first ion, spin component:           1
 30.099 -23.444   0.000  -0.089   0.035   0.000  -0.141   0.055
-23.444  28.122  -0.000   0.051  -0.019  -0.000   0.082  -0.032
  0.000  -0.000   6.334   0.000  -0.000   9.799   0.000  -0.000
 -0.089   0.051   0.000   6.331   0.002   0.000   9.795   0.003
  0.035  -0.019  -0.000   0.002   6.334  -0.000   0.003   9.799
  0.000  -0.000   9.799   0.000  -0.000  15.230   0.000  -0.000
 -0.141   0.082   0.000   9.795   0.003   0.000  15.224   0.004
  0.055  -0.032  -0.000   0.003   9.799  -0.000   0.004  15.230
 -0.000   0.000   0.007   0.000   0.000   0.011   0.000   0.000
  0.000  -0.000  -0.020   0.000   0.000  -0.031   0.000   0.000
 -0.003   0.004  -0.000  -0.023  -0.004  -0.000  -0.035  -0.006
  0.003  -0.002   0.000   0.008  -0.020   0.000   0.013  -0.031
 -0.000   0.000  -0.000  -0.000   0.008  -0.000  -0.000   0.013
 total augmentation occupancy for first ion, spin component:           1
  2.025  -0.015  -0.000   0.237  -0.090   0.000  -0.042   0.017   0.000  -0.000   0.022   0.002   0.001
 -0.015   0.009   0.000  -0.073   0.027  -0.000   0.019  -0.006   0.000   0.000  -0.001   0.001  -0.001
 -0.000   0.000   1.492  -0.000   0.000  -0.400  -0.000  -0.000   0.125  -0.043  -0.000  -0.000   0.000
  0.237  -0.073  -0.000   1.847   0.004  -0.000  -0.486  -0.016  -0.000  -0.000  -0.269  -0.020  -0.000
 -0.090   0.027   0.000   0.004   1.467  -0.000  -0.016  -0.386   0.000  -0.000  -0.080  -0.045  -0.008
  0.000  -0.000  -0.400  -0.000  -0.000   0.116   0.000   0.000  -0.033   0.012   0.000   0.000  -0.000
 -0.042   0.019  -0.000  -0.486  -0.016   0.000   0.140   0.008   0.000   0.000   0.074   0.005   0.000
  0.017  -0.006  -0.000  -0.016  -0.386   0.000   0.008   0.110  -0.000   0.000   0.021   0.012   0.002
  0.000   0.000   0.125  -0.000   0.000  -0.033   0.000  -0.000   0.074   0.001  -0.000   0.000   0.000
 -0.000   0.000  -0.043  -0.000  -0.000   0.012   0.000   0.000   0.001   0.021   0.000   0.000  -0.000
  0.022  -0.001  -0.000  -0.269  -0.080   0.000   0.074   0.021  -0.000   0.000   0.077   0.006   0.002
  0.002   0.001  -0.000  -0.020  -0.045   0.000   0.005   0.012   0.000   0.000   0.006   0.022   0.001
  0.001  -0.001   0.000  -0.000  -0.008  -0.000   0.000   0.002   0.000  -0.000   0.002   0.001   0.016


------------------------ aborting loop because EDIFF is reached ----------------------------------------


    CHARGE:  cpu time    0.1672: real time    0.1673
    FORLOC:  cpu time    0.0017: real time    0.0017
    FORNL :  cpu time    0.3124: real time    0.3126
    STRESS:  cpu time    0.6044: real time    0.6051
    FORCOR:  cpu time    0.0385: real time    0.0386
    FORHAR:  cpu time    0.0123: real time    0.0123
    MIXING:  cpu time    0.0008: real time    0.0008
    OFIELD:  cpu time    0.0000: real time    0.0000

  FORCE on cell =-STRESS in cart. coord.  units (eV):
  Direction    XX          YY          ZZ          XY          YZ          ZX
  --------------------------------------------------------------------------------------
  Alpha Z     9.43347     9.43347     9.43347
  Ewald    1592.49080  1598.44561 -2049.16392     0.00001     0.00000    -0.00001
  Hartree  1715.12956  1716.85369 -1667.89500     0.00000     0.00000    -0.00000
  E(xc)     -77.60690   -77.61010   -78.84556    -0.00000    -0.00000    -0.00000
  Local   -3560.27753 -3567.26214  3462.39112    -0.00001    -0.00000     0.00001
  n-local   162.27012   162.51255   167.22500     0.00000     0.00000    -0.00000
  augment   -31.87398   -31.79713   -32.81893    -0.00000     0.00000    -0.00000
  Kinetic   190.27522   189.05254   189.67070    -0.00000    -0.00000     0.00000
  Fock        0.00000     0.00000     0.00000     0.00000     0.00000     0.00000
  -------------------------------------------------------------------------------------
  Total      -0.15923    -0.37151    -0.00314     0.00000    -0.00000    -0.00000
  in kB      -0.67306    -1.57031    -0.01325     0.00000    -0.00000    -0.00000
  external pressure =       -0.75 kB  Pullay stress =        0.00 kB


 VOLUME and BASIS-vectors are now :
 -----------------------------------------------------------------------------
  energy-cutoff  :      600.00
  volume of cell :      379.05
      direct lattice vectors                 reciprocal lattice vectors
     4.382356765  0.000000000  0.000000000     0.228187720  0.000000000  0.000000000
     0.000000000  4.324671441  0.000000000     0.000000000  0.231231439  0.000000000
     0.000000000  0.000000000 20.000000000     0.000000000  0.000000000  0.050000000

  length of vectors
     4.382356765  4.324671441 20.000000000     0.228187720  0.231231439  0.050000000


 FORCES acting on ions
    electron-ion (+dipol)            ewald-force                    non-local-force                 convergence-correction
 -----------------------------------------------------------------------------------------------
   0.427E+01 0.387E-05 -.143E+03   -.580E+01 -.507E-05 0.147E+03   0.153E+01 0.114E-05 -.381E+01   0.197E-05 -.303E-07 0.598E-03
   0.427E+01 0.377E-05 0.143E+03   -.580E+01 -.497E-05 -.147E+03   0.153E+01 0.111E-05 0.381E+01   0.229E-05 0.321E-07 -.589E-03
   -.534E+01 -.490E-05 -.205E+03   0.580E+01 0.531E-05 0.207E+03   -.454E+00 -.372E-06 -.205E+01   0.270E-03 -.111E-07 0.172E-02
   -.534E+01 -.406E-05 0.205E+03   0.580E+01 0.473E-05 -.207E+03   -.454E+00 -.404E-06 0.205E+01   0.271E-03 -.208E-06 -.170E-02
 -----------------------------------------------------------------------------------------------
   -.215E+01 -.132E-05 -.351E-04   0.355E-14 0.892E-15 -.284E-13   0.215E+01 0.148E-05 0.668E-05   0.546E-03 -.217E-06 0.288E-04
 
 
 POSITION                                       TOTAL-FORCE (eV/Angst)
 -----------------------------------------------------------------------------------
      2.55230      3.24350     11.37179         0.000297     -0.000000      0.000182
      0.36112      1.08117      8.62821         0.000297     -0.000000     -0.000185
      0.13892      1.08117     11.34143        -0.000297      0.000000     -0.000867
      2.33010      3.24350      8.65857        -0.000297      0.000000      0.000869
 -----------------------------------------------------------------------------------
    total drift:                                0.000008     -0.000000      0.000000


--------------------------------------------------------------------------------------------------------



  FREE ENERGIE OF THE ION-ELECTRON SYSTEM (eV)
  ---------------------------------------------------
  free  energy   TOTEN  =       -16.26300944 eV

  energy  without entropy=      -16.26300944  energy(sigma->0) =      -16.26300944
 
 d Force = 0.3987472E-06[ 0.344E-06, 0.454E-06]  d Energy = 0.4943661E-06-0.956E-07
 d Force =-0.3002426E-01[-0.300E-01,-0.300E-01]  d Ewald  =-0.3002426E-01 0.609E-10


--------------------------------------------------------------------------------------------------------


    POTLOK:  cpu time    0.0418: real time    0.0418


--------------------------------------------------------------------------------------------------------


 Conjugate gradient step on ions:
 trial-energy change:   -0.000000  1 .order   -0.000000   -0.000000   -0.000000
  (g-gl).g = 0.148E-06      g.g   = 0.160E-06  gl.gl    = 0.744E-06
 g(Force)  = 0.160E-06   g(Stress)= 0.000E+00 ortho     = 0.916E-08
 gamma     =   0.19935
 trial     =   2.80797
 opt step  =  11.23190  (harmonic =  11.57941) maximal distance =0.00058963
 next E    =   -16.263010   (d E  =  -0.00000)


--------------------------------------------------------------------------------------------------------


  
 reached required accuracy - stopping structural energy minimisation
 writing wavefunctions
     LOOP+:  cpu time    8.1660: real time    8.7291
    4ORBIT:  cpu time    0.0000: real time    0.0000

 total amount of memory used by VASP MPI-rank0    63758. kBytes
=======================================================================

   base      :      30000. kBytes
   nonl-proj :      12726. kBytes
   fftplans  :       2678. kBytes
   grid      :       4349. kBytes
   one-center:          8. kBytes
   wavefun   :      13997. kBytes
 
  
  
 General timing and accounting informations for this job:
 ========================================================
  
                  Total CPU time used (sec):      174.472
                            User time (sec):      173.679
                          System time (sec):        0.793
                         Elapsed time (sec):      182.379
  
                   Maximum memory used (kb):      209916.
                   Average memory used (kb):           0.
  
                          Minor page faults:       142364
                          Major page faults:           60
                 Voluntary context switches:        12092
