
     Program PWSCF v.6.6 starts on  8May2023 at  6:38:19 

     This program is part of the open-source Quantum ESPRESSO suite
     for quantum simulation of materials; please cite
         "P. Giannozzi et al., J. Phys.:Condens. Matter 21 395502 (2009);
         "P. Giannozzi et al., J. Phys.:Condens. Matter 29 465901 (2017);
          URL http://www.quantum-espresso.org", 
     in publications or presentations arising from this work. More details at
     http://www.quantum-espresso.org/quote

     Parallel version (MPI), running on    24 processors

     MPI processes distributed on     1 nodes
     R & G space division:  proc/nbgrp/npool/nimage =      24
     Fft bands division:     nmany     =       1
     Reading input from INCAR-nscf.pw

     Current dimensions of program PWSCF are:
     Max number of different atomic species (ntypx) = 10
     Max number of k-points (npk) =  40000
     Max angular momentum in pseudopotentials (lmaxx) =  3

     Atomic positions and unit cell read from directory:
     ./wfc-out/pwscf.save/
     Atomic positions from file used, from input discarded
 

     Subspace diagonalization in iterative solution of the eigenvalue problem:
     a serial algorithm will be used

 
     Parallelization info
     --------------------
     sticks:   dense  smooth     PW     G-vecs:    dense   smooth      PW
     Min         133      70     21                26099    10158    1647
     Max         134      71     22                26105    10171    1673
     Sum        3195    1701    505               626469   243999   39909
 


     bravais-lattice index     =            0
     lattice parameter (alat)  =       8.2436  a.u.
     unit-cell volume          =    2524.4304 (a.u.)^3
     number of atoms/cell      =            4
     number of atomic types    =            2
     number of electrons       =        40.00
     number of Kohn-Sham states=           20
     kinetic-energy cutoff     =      80.0000  Ry
     charge density cutoff     =     600.0000  Ry
     Exchange-correlation= SLA  PW   PBE  PBE
                           (   1   4   3   4   0   0   0)

     celldm(1)=   8.243577  celldm(2)=   0.000000  celldm(3)=   0.000000
     celldm(4)=   0.000000  celldm(5)=   0.000000  celldm(6)=   0.000000

     crystal axes: (cart. coord. in units of alat)
               a(1) = (   1.000000   0.000000   0.000000 )  
               a(2) = (   0.000000   0.982886   0.000000 )  
               a(3) = (   0.000000   0.000000   4.584724 )  

     reciprocal axes: (cart. coord. in units 2 pi/alat)
               b(1) = (  1.000000  0.000000  0.000000 )  
               b(2) = (  0.000000  1.017412  0.000000 )  
               b(3) = (  0.000000  0.000000  0.218116 )  


     PseudoPot. # 1 for Sn read from file:
     ./Sn_pbe_v1.uspp.F.UPF
     MD5 check sum: 4cf58ce39ec5d5d420df3dd08604eb00
     Pseudo is Ultrasoft + core correction, Zval = 14.0
     Generated by new atomic code, or converted to UPF format
     Using radial grid of  891 points,  6 beta functions with: 
                l(1) =   0
                l(2) =   0
                l(3) =   1
                l(4) =   1
                l(5) =   2
                l(6) =   2
     Q(r) pseudized with  6 coefficients,  rinner =    1.200   1.200   1.200
                                                       1.200   1.200

     PseudoPot. # 2 for Se read from file:
     ./Se_pbe_v1.uspp.F.UPF
     MD5 check sum: 1b3568f3a8ae88f9a2a0ad0698632c85
     Pseudo is Ultrasoft + core correction, Zval =  6.0
     Generated by new atomic code, or converted to UPF format
     Using radial grid of  877 points,  6 beta functions with: 
                l(1) =   0
                l(2) =   0
                l(3) =   1
                l(4) =   1
                l(5) =   2
                l(6) =   2
     Q(r) pseudized with  8 coefficients,  rinner =    1.300   1.300   1.300
                                                       1.300   1.300

     atomic species   valence    mass     pseudopotential
        Sn            14.00   118.71000     Sn( 1.00)
        Se             6.00    78.96000     Se( 1.00)

     No symmetry found



   Cartesian axes

     site n.     atom                  positions (alat units)
         1           Sn  tau(   1) = (   0.5796416   0.7371645   0.6623833  )
         2           Sn  tau(   2) = (   0.0796439   0.2457215   0.0305670  )
         3           Se  tau(   3) = (   0.0344616   0.2457215   0.6536558  )
         4           Se  tau(   4) = (   0.5344609   0.7371645   0.0393101  )

     number of k points=   120

     Number of k-points >= 100: set verbosity='high' to print them.

     Dense  grid:   626469 G-vectors     FFT dimensions: (  72,  64, 300)

     Smooth grid:   243999 G-vectors     FFT dimensions: (  48,  48, 216)

     Estimated max dynamical RAM per process >      89.01 MB

     Estimated total dynamical RAM >       2.09 GB

     The potential is recalculated from file :
     ./wfc-out/pwscf.save/charge-density


     negative rho (up, down):  2.846E-05 0.000E+00
     Starting wfcs are   26 randomized atomic wfcs

     Band Structure Calculation
     Davidson diagonalization with overlap

     ethr =  2.50E-13,  avg # of iterations = 57.9

     total cpu time spent up to now is      113.2 secs

     End of band structure calculation

     Number of k-points >= 100: set verbosity='high' to print the bands.

     highest occupied level (ev):    -0.8138



               ==================================================
                            POLARIZATION CALCULATION
                         !!! NOT THOROUGHLY TESTED !!!
               --------------------------------------------------


                     K-POINTS STRINGS USED IN CALCULATIONS
                     ~~~~~~~~~~~~~~~~~~~~~~~~~~~~~~~~~~~~~

       G-vector along string (2 pi/a):  1.00000  0.00000  0.00000
       Modulus of the vector (1/bohr):  0.76219
       Number of k-points per string:  15
       Number of different strings  :   8


                               IONIC POLARIZATION
                               ~~~~~~~~~~~~~~~~~~

  ============================================================================
    Ion    Species    Charge              Position                Phase
  ----------------------------------------------------------------------------
     1        Sn      14.000       0.5796  0.7372  0.6624     0.11498 (mod 2)
     2        Sn      14.000       0.0796  0.2457  0.0306    -0.88499 (mod 2)
     3        Se       6.000       0.0345  0.2457  0.6537     0.20677 (mod 2)
     4        Se       6.000       0.5345  0.7372  0.0393    -0.79323 (mod 2)
  ----------------------------------------------------------------------------
                                               IONIC PHASE:   0.64353 (mod 2)
  ============================================================================


                            ELECTRONIC POLARIZATION
                            ~~~~~~~~~~~~~~~~~~~~~~~

  ============================================================================
    String     Weight      First k-point in string         Phase
  ----------------------------------------------------------------------------
       1      0.066667      0.0000  0.0000  0.0000    -0.45312
       2      0.133333      0.0000  0.0678  0.0000    -0.32098
       3      0.133333      0.0000  0.1357  0.0000    -0.22634
       4      0.133333      0.0000  0.2035  0.0000    -0.16921
       5      0.133333      0.0000  0.2713  0.0000    -0.11815
       6      0.133333      0.0000  0.3391  0.0000    -0.07584
       7      0.133333      0.0000  0.4070  0.0000    -0.05299
       8      0.133333      0.0000  0.4748  0.0000    -0.04612
  ----------------------------------------------------------------------------
                                          ELECTRONIC PHASE:  -0.16482
  ============================================================================


                               SUMMARY OF PHASES
                               ~~~~~~~~~~~~~~~~~

                          Ionic Phase:  0.64353
                     Electronic Phase: -0.16482
                          TOTAL PHASE:  0.47871 MOD_TOT: 2


                             VALUES OF POLARIZATION
                             ~~~~~~~~~~~~~~~~~~~~~~

        The calculation of phases done along the direction of vector 1
        of the reciprocal lattice gives the following contribution to
        the polarization vector (in different units, and being Omega
        the volume of the unit cell):

           P =   3.9462539  (mod  16.4871544)  (e/Omega).bohr

           P =   0.0015632  (mod   0.0065310)  e/bohr^2

           P =   0.0893723  (mod   0.3733908)  C/m^2

        The polarization direction is:  ( 1.00000 , 0.00000 , 0.00000 )


               ==================================================



     Writing output data file ./wfc-out/pwscf.save/
 
     init_run     :      0.84s CPU      1.03s WALL (       1 calls)
     electrons    :    114.51s CPU    118.88s WALL (       1 calls)

     Called by init_run:
     wfcinit      :      0.00s CPU      0.00s WALL (       1 calls)
     potinit      :      0.06s CPU      0.09s WALL (       1 calls)
     hinit0       :      0.30s CPU      0.31s WALL (       1 calls)

     Called by electrons:
     c_bands      :    107.78s CPU    111.91s WALL (       1 calls)
     v_of_rho     :      0.04s CPU      0.05s WALL (       1 calls)
     newd         :      0.18s CPU      0.28s WALL (       1 calls)

     Called by c_bands:
     init_us_2    :      0.13s CPU      0.19s WALL (     344 calls)
     cegterg      :     99.93s CPU    102.49s WALL (     367 calls)

     Called by *egterg:
     cdiaghg      :      4.90s CPU      4.94s WALL (    7073 calls)
     h_psi        :     73.51s CPU     75.88s WALL (    7440 calls)
     s_psi        :      2.57s CPU      2.61s WALL (    7440 calls)
     g_psi        :      0.55s CPU      0.56s WALL (    6953 calls)

     Called by h_psi:
     h_psi:calbec :      5.34s CPU      5.48s WALL (    7440 calls)
     vloc_psi     :     64.96s CPU     67.14s WALL (    7440 calls)
     add_vuspsi   :      2.89s CPU      2.93s WALL (    7440 calls)

     General routines
     calbec       :      5.77s CPU      5.94s WALL (    7664 calls)
     fft          :      0.04s CPU      0.04s WALL (      13 calls)
     ffts         :      0.00s CPU      0.00s WALL (       1 calls)
     fftw         :     59.30s CPU     61.29s WALL (  275868 calls)
     interpolate  :      0.00s CPU      0.00s WALL (       1 calls)
     davcio       :      0.09s CPU      1.51s WALL (     464 calls)
 
     Parallel routines
     fft_scatt_xy :      7.10s CPU      7.34s WALL (  275882 calls)
     fft_scatt_yz :     34.47s CPU     35.61s WALL (  275882 calls)
 
     PWSCF        :   1m57.46s CPU   3m33.94s WALL

 
   This run was terminated on:   6:41:53   8May2023            

=------------------------------------------------------------------------------=
   JOB DONE.
=------------------------------------------------------------------------------=
