LAMMPS (29 Sep 2021)
Processor partition = 6
# System Setup
    units    real
    dimension   3
    boundary    p p s
    atom_style  charge
    neigh_modify  delay 5
    atom_modify map array sort 0 0.0
    newton      on

# Read Data
    read_data ./image-0.lmp
Reading data file ...
  orthogonal box = (0.0000000 0.0000000 0.0000000) to (253.84801 95.581365 20.000000)
  8 by 2 by 1 MPI processor grid
  reading atoms ...
  8280 atoms
  read_data CPU = 0.046 seconds

# Force field setup
    pair_style reaxff NULL
    pair_coeff * * ./H-S-Mo.reaxff Mo S
    mass 1 95.75
    mass 2 32.06

# Molecular Static run setup
timestep 0.25  # metal 1=1ps; real 1=1fs

# Charge equllibrium step
    fix 0 all qeq/reaxff 1 0.0 10.0 1.0e-6 reaxff  # Charge equillibrium at each step

# Minimization
    thermo 10
    fix 1 all box/relax x 0.0 y 0.0 vmax 0.01
    thermo_style custom step pe lx ly lz pxx pyy pzz press
    min_style cg
    minimize 1e-10 1e-10 5000 10000

CITE-CITE-CITE-CITE-CITE-CITE-CITE-CITE-CITE-CITE-CITE-CITE-CITE

Your simulation uses code contributions which should be cited:

- pair reaxff command:

@Article{Aktulga12,
 author = {H. M. Aktulga, J. C. Fogarty, S. A. Pandit, A. Y. Grama},
 title = {Parallel reactive molecular dynamics: Numerical methods and algorithmic techniques},
 journal = {Parallel Computing},
 year =    2012,
 volume =  38,
 pages =   {245--259}
}

- fix qeq/reaxff command:

@Article{Aktulga12,
 author = {H. M. Aktulga, J. C. Fogarty, S. A. Pandit, A. Y. Grama},
 title = {Parallel reactive molecular dynamics: Numerical methods and algorithmic techniques},
 journal = {Parallel Computing},
 year =    2012,
 volume =  38,
 pages =   {245--259}
}

CITE-CITE-CITE-CITE-CITE-CITE-CITE-CITE-CITE-CITE-CITE-CITE-CITE

WARNING: Using 'neigh_modify every 1 delay 0 check yes' setting during minimization (../min.cpp:188)
Neighbor list info ...
  update every 1 steps, delay 0 steps, check yes
  max neighbors/atom: 2000, page size: 100000
  master list distance cutoff = 12
  ghost atom cutoff = 12
  binsize = 6, bins = 43 16 1
  2 neighbor lists, perpetual/occasional/extra = 2 0 0
  (1) pair reaxff, perpetual
      attributes: half, newton off, ghost
      pair build: half/bin/newtoff/ghost
      stencil: full/ghost/bin/3d
      bin: standard
  (2) fix qeq/reaxff, perpetual, copy from (1)
      attributes: half, newton off, ghost
      pair build: copy
      stencil: none
      bin: none
Per MPI rank memory allocation (min/avg/max) = 28.83 | 29.17 | 29.50 Mbytes
Step PotEng Lx Ly Lz Pxx Pyy Pzz Press 
       0    -963236.9    253.84801    95.581365     3.191507    16794.306   -11625.094   -3075.8427    697.78964 
      10   -963347.45    254.04634    95.614913    3.1887875   -2254.5022   -12797.206    4731.8188   -3439.9632 
      20   -963379.87    253.95465    95.549377    3.1896444     976.1835   -242.24437   -1414.5988   -226.88657 
      30   -963393.32    253.92703    95.559564     3.189457   -11.186399    170.31794   -955.85544   -265.57463 
      40   -963399.62    253.89098    95.572466    3.1892959    211.31636   -369.31195   -620.31079   -259.43546 
      50   -963403.67    253.93958    95.554191    3.1890773   -3368.2577    2743.2152   -166.52574   -263.85605 
      59   -963406.55    253.83825    95.585517     3.188815    9.2237543    10.105001   -121.64787   -34.106371 
Loop time of 4.16816 on 16 procs for 59 steps with 8280 atoms

99.6% CPU use with 16 MPI tasks x no OpenMP threads

Minimization stats:
  Stopping criterion = energy tolerance
  Energy initial, next-to-last, final = 
     -963236.898696757  -963406.545661106  -963406.545737087
  Force two-norm initial, final = 23080.639 40.668383
  Force max component initial, final = 18966.218 11.411384
  Final line search alpha, max atom move = 0.00017597652 0.0020081358
  Iterations, force evaluations = 59 118

MPI task timing breakdown:
Section |  min time  |  avg time  |  max time  |%varavg| %total
---------------------------------------------------------------
Pair    | 2.632      | 3.2768     | 3.5497     |  12.7 | 78.62
Neigh   | 0.17985    | 0.20279    | 0.21147    |   1.8 |  4.87
Comm    | 0.0094051  | 0.22456    | 0.92864    |  54.7 |  5.39
Output  | 0.00017947 | 0.0001869  | 0.00023865 |   0.0 |  0.00
Modify  | 0.38278    | 0.39193    | 0.41432    |   1.2 |  9.40
Other   |            | 0.07186    |            |       |  1.72

Nlocal:        517.500 ave         540 max         495 min
Histogram: 8 0 0 0 0 0 0 0 0 8
Nghost:        855.000 ave         901 max         810 min
Histogram: 8 0 0 0 0 0 0 0 0 8
Neighs:        50130.5 ave       52057 max       48204 min
Histogram: 8 0 0 0 0 0 0 0 0 8

Total # of neighbors = 802088
Ave neighs/atom = 96.870531
Neighbor list builds = 104
Dangerous builds = 98
    reset_timestep	0
    fix 2 all neb 1.0 parallel ideal
    unfix 1

# NEB
    min_style quickmin
    variable u uloop 200
    dump  1 all atom 10 dump.neb.$u
    dump  1 all atom 10 dump.neb.7
    neb	  1e-6 1e-6 10000 10000 100 final ./image-1.cord
WARNING: Using 'neigh_modify every 1 delay 0 check yes' setting during minimization (../min.cpp:188)
Per MPI rank memory allocation (min/avg/max) = 28.70 | 29.04 | 29.39 Mbytes
Step PotEng Lx Ly Lz Pxx Pyy Pzz Press 
       0   -912605.64    253.83825    95.585517    3.2115947   -117731.09   -32040.877       176420    8882.6758 
      10   -913667.92    253.83825    95.585517    3.2115947    -121570.1   -42178.416     177096.1    4449.1929 
      20   -916518.75    253.83825    95.585517    3.2115947   -128035.25   -69997.749     174722.8   -7770.0646 
      30   -919755.21    253.83825    95.585517    3.2115947   -124362.85   -97926.506    155667.66   -22207.233 
      40   -922209.64    253.83825    95.585517    3.2115947   -111512.21   -107686.54    118391.06   -33602.559 
      50   -923786.57    253.83825    95.585517    3.2115947   -97109.885    -102893.2     80223.55    -39926.51 
      60   -924935.92    253.83825    95.585517    3.2115947    -79366.62    -91757.27     45029.83   -42031.353 
      70    -925794.9    253.83825    95.585517    3.2115947   -63857.382    -78718.23    13716.998   -42952.871 
      80   -926223.78    253.83825    95.585517    3.2115947   -59054.898   -71421.414    1816.1545   -42886.719 
      90   -926501.14    253.83825    95.585517    3.2115947   -56916.692   -68042.491    -549.9042   -41836.362 
     100    -926713.7    253.83825    95.585517    3.2115947   -55527.232   -66227.437   -312.42897   -40689.033 
     110   -926889.22    253.83825    95.585517    3.2115947   -53946.169   -64837.742    1132.5648   -39217.116 
     120   -927035.62    253.83825    95.585517    3.2115947   -52068.183   -63529.779    3236.1185   -37453.948 
     130   -927090.41    253.83825    95.585517    3.2115947     -53898.3   -62949.246   -1734.3409   -39527.296 
     140   -927119.55    253.83825    95.585517    3.2115947   -53427.114   -62593.888   -1384.0657   -39135.023 
     150   -927144.71    253.83825    95.585517    3.2115947   -52969.629   -62241.257   -1077.7881   -38762.891 
     160   -927164.46    253.83825    95.585517    3.2115947   -52569.375   -61913.549   -867.54995   -38450.158 
     170   -927177.79    253.83825    95.585517    3.2115947   -52286.113   -61645.254   -809.85621   -38247.075 
     180   -927185.17    253.83825    95.585517    3.2115947   -52099.593    -61466.43   -782.95602   -38116.326 
     190   -927190.05    253.83825    95.585517    3.2115947   -51908.431   -61326.528   -663.38338   -37966.114 
     200   -927193.87    253.83825    95.585517    3.2115947    -51726.26   -61196.004   -545.94822   -37822.737 
     210   -927196.66    253.83825    95.585517    3.2115947   -51568.201   -61080.844   -448.78431   -37699.276 
     220   -927198.55    253.83825    95.585517    3.2115947   -51435.944   -60984.655   -368.35307   -37596.317 
     230   -927199.78    253.83825    95.585517    3.2115947   -51328.039    -60906.83   -301.97569   -37512.282 
     240   -927200.52    253.83825    95.585517    3.2115947   -51249.782   -60849.441    -256.2247   -37451.816 
     250   -927200.93    253.83825    95.585517    3.2115947   -51193.243   -60810.075   -218.39053   -37407.236 
     260   -927201.23    253.83825    95.585517    3.2115947   -51144.653   -60776.793   -184.88519   -37368.777 
     270   -927201.45    253.83825    95.585517    3.2115947   -51103.551   -60748.701   -156.20496   -37336.152 
     280   -927201.59    253.83825    95.585517    3.2115947   -51070.749   -60726.242   -134.14273   -37310.378 
     290   -927201.69    253.83825    95.585517    3.2115947    -51045.86   -60709.338   -116.23243   -37290.477 
     300   -927201.76    253.83825    95.585517    3.2115947   -51025.274   -60695.451   -101.92357   -37274.216 
     310   -927201.81    253.83825    95.585517    3.2115947   -51006.162   -60682.695   -87.543497     -37258.8 
     320   -927201.86    253.83825    95.585517    3.2115947   -50987.189    -60669.99     -74.1153   -37243.765 
     330    -927201.9    253.83825    95.585517    3.2115947   -50969.426   -60658.109   -61.208703   -37229.581 
     340   -927201.92    253.83825    95.585517    3.2115947   -50953.209   -60647.217   -49.727144   -37216.718 
     350   -927201.94    253.83825    95.585517    3.2115947   -50939.655   -60638.106    -40.03347   -37205.932 
     360   -927201.95    253.83825    95.585517    3.2115947   -50930.622   -60632.034   -33.579897   -37198.745 
     370   -927201.96    253.83825    95.585517    3.2115947   -50923.035   -60626.953   -28.292437    -37192.76 
     380   -927201.97    253.83825    95.585517    3.2115947   -50916.625   -60622.687   -23.443581   -37187.585 
     390   -927201.97    253.83825    95.585517    3.2115947   -50911.159   -60619.017   -19.873597    -37183.35 
     400   -927201.97    253.83825    95.585517    3.2115947   -50906.802   -60616.128    -16.36596   -37179.765 
     410   -927201.98    253.83825    95.585517    3.2115947   -50903.261   -60613.724   -14.501281   -37177.162 
     420   -927201.98    253.83825    95.585517    3.2115947   -50900.705   -60612.081   -11.409204   -37174.732 
     430   -927201.98    253.83825    95.585517    3.2115947   -50898.441   -60610.552   -10.199632   -37173.064 
     440   -927201.98    253.83825    95.585517    3.2115947   -50896.501   -60609.267   -8.6875149   -37171.485 
     450   -927201.98    253.83825    95.585517    3.2115947   -50894.803   -60608.138    -7.514715   -37170.152 
     460   -927201.98    253.83825    95.585517    3.2115947   -50893.322   -60607.167   -6.1471117   -37168.879 
     470   -927201.98    253.83825    95.585517    3.2115947   -50891.839   -60606.145   -5.5995982   -37167.861 
     480   -927201.98    253.83825    95.585517    3.2115947   -50890.524   -60605.239   -5.2056258   -37166.989 
     490   -927201.98    253.83825    95.585517    3.2115947   -50889.598   -60604.686   -3.5561826   -37165.947 
     500   -927201.98    253.83825    95.585517    3.2115947   -50888.689   -60604.086   -2.7294065   -37165.168 
     510   -927201.98    253.83825    95.585517    3.2115947   -50887.853   -60603.508   -2.5000609    -37164.62 
     520   -927201.98    253.83825    95.585517    3.2115947   -50887.263   -60603.107   -2.1714083   -37164.181 
     530   -927201.98    253.83825    95.585517    3.2115947   -50886.884   -60602.888   -1.3324385   -37163.701 
     540   -927201.98    253.83825    95.585517    3.2115947   -50886.424   -60602.534   -1.9913405    -37163.65 
     550   -927201.98    253.83825    95.585517    3.2115947   -50886.166   -60602.401   -1.0949112   -37163.221 
     560   -927201.98    253.83825    95.585517    3.2115947   -50885.831   -60602.168   -1.0743444   -37163.024 
     570   -927201.98    253.83825    95.585517    3.2115947    -50885.66   -60602.065  -0.81677554   -37162.847 
     580   -927201.98    253.83825    95.585517    3.2115947   -50885.661   -60602.103   -0.1278065    -37162.63 
     590   -927201.98    253.83825    95.585517    3.2115947   -50885.519    -60602.01  0.075260774   -37162.484 
     600   -927201.98    253.83825    95.585517    3.2115947   -50885.448   -60601.965  0.080809503   -37162.444 
     610   -927201.98    253.83825    95.585517    3.2115947   -50885.251   -60601.792  -0.37810733   -37162.474 
     620   -927201.98    253.83825    95.585517    3.2115947   -50885.165   -60601.726   -0.5736252   -37162.488 
     630   -927201.98    253.83825    95.585517    3.2115947   -50885.097   -60601.683  -0.43516556   -37162.405 
     640   -927201.98    253.83825    95.585517    3.2115947   -50885.027   -60601.625  -0.52087324   -37162.391 
     650   -927201.98    253.83825    95.585517    3.2115947   -50884.998     -60601.6  -0.57241968    -37162.39 
     660   -927201.98    253.83825    95.585517    3.2115947   -50884.968   -60601.584  -0.50935817   -37162.354 
     670   -927201.98    253.83825    95.585517    3.2115947    -50885.02   -60601.642  -0.11771471    -37162.26 
     680   -927201.98    253.83825    95.585517    3.2115947   -50885.011    -60601.64 -0.018110771   -37162.223 
     690   -927201.98    253.83825    95.585517    3.2115947   -50884.985   -60601.632  0.068678529   -37162.183 
     700   -927201.98    253.83825    95.585517    3.2115947    -50884.91   -60601.558  -0.11511142   -37162.194 
     710   -927201.98    253.83825    95.585517    3.2115947   -50884.931   -60601.593   0.12112069   -37162.134 
     720   -927201.98    253.83825    95.585517    3.2115947   -50884.874   -60601.541 -0.078404698   -37162.164 
     730   -927201.98    253.83825    95.585517    3.2115947   -50884.853   -60601.509  -0.15731427   -37162.173 
     739   -927201.98    253.83825    95.585517    3.2115947   -50884.886   -60601.554  0.074115152   -37162.122 
Loop time of 27.0557 on 16 procs for 739 steps with 8280 atoms

99.6% CPU use with 16 MPI tasks x no OpenMP threads

Minimization stats:
  Stopping criterion = energy tolerance
  Energy initial, next-to-last, final = 
     -912605.643386832  -927201.984681976  -927201.983794269
  Force two-norm initial, final = 7158.3350 0.14732150
  Force max component initial, final = 106.89431 0.0046108340
  Final line search alpha, max atom move = 0.0000000 0.0000000
  Iterations, force evaluations = 739 739

MPI task timing breakdown:
Section |  min time  |  avg time  |  max time  |%varavg| %total
---------------------------------------------------------------
Pair    | 15.513     | 19.722     | 21.219     |  33.6 | 72.89
Neigh   | 0          | 0          | 0          |   0.0 |  0.00
Comm    | 0.048605   | 1.205      | 5.7494     | 149.9 |  4.45
Output  | 0.076753   | 0.076882   | 0.077428   |   0.1 |  0.28
Modify  | 5.3124     | 5.662      | 5.8787     |  11.1 | 20.93
Other   |            | 0.3902     |            |       |  1.44

Nlocal:        517.500 ave         525 max         510 min
Histogram: 8 0 0 0 0 0 0 0 0 8
Nghost:        849.500 ave         863 max         825 min
Histogram: 4 0 0 0 0 0 4 0 0 8
Neighs:        48525.0 ave       49147 max       47903 min
Histogram: 8 0 0 0 0 0 0 0 0 8

Total # of neighbors = 776400
Ave neighs/atom = 93.768116
Neighbor list builds = 0
Dangerous builds = 0
WARNING: Using 'neigh_modify every 1 delay 0 check yes' setting during minimization (../min.cpp:188)
Per MPI rank memory allocation (min/avg/max) = 28.69 | 29.04 | 29.41 Mbytes
Step PotEng Lx Ly Lz Pxx Pyy Pzz Press 
     739   -927201.98    253.83825    95.585517    3.2638944    -50069.58   -59630.557   0.47542188   -36566.554 
     740   -927201.98    253.83825    95.585517    3.2638944   -50069.491   -59630.458  -0.17077864   -36566.706 
     745   -927201.98    253.83825    95.585517    3.2638944   -50069.467   -59630.429   -0.3559444   -36566.751 
Loop time of 0.255988 on 16 procs for 6 steps with 8280 atoms

99.7% CPU use with 16 MPI tasks x no OpenMP threads

Minimization stats:
  Stopping criterion = energy tolerance
  Energy initial, next-to-last, final = 
       -927201.9831777  -927201.983531609  -927201.984474694
  Force two-norm initial, final = 0.14740394 0.14741016
  Force max component initial, final = 0.0046343634 0.0046122360
  Final line search alpha, max atom move = 0.0000000 0.0000000
  Iterations, force evaluations = 6 6

MPI task timing breakdown:
Section |  min time  |  avg time  |  max time  |%varavg| %total
---------------------------------------------------------------
Pair    | 0.14644    | 0.18647    | 0.19607    |   3.4 | 72.84
Neigh   | 0          | 0          | 0          |   0.0 |  0.00
Comm    | 0.00024573 | 0.0097228  | 0.050041   |  15.0 |  3.80
Output  | 0.001305   | 0.0013067  | 0.0013148  |   0.0 |  0.51
Modify  | 0.056133   | 0.05643    | 0.057499   |   0.2 | 22.04
Other   |            | 0.00206    |            |       |  0.80

Nlocal:        517.500 ave         525 max         510 min
Histogram: 8 0 0 0 0 0 0 0 0 8
Nghost:        843.750 ave         863 max         825 min
Histogram: 8 0 0 0 0 0 0 0 0 8
Neighs:        48525.0 ave       49147 max       47903 min
Histogram: 8 0 0 0 0 0 0 0 0 8

Total # of neighbors = 776400
Ave neighs/atom = 93.768116
Neighbor list builds = 0
Dangerous builds = 0
Total wall time: 0:00:31
