 vasp.5.4.4.18Apr17-6-g9f103f2a35 (build Jan 16 2023 14:10:27) complex          
  
 executed on             LinuxIFC date 2024.10.24  14:53:27
 running on  128 total cores
 distrk:  each k-point on  128 cores,    1 groups
 distr:  one band on NCORES_PER_BAND=   1 cores,  128 groups


--------------------------------------------------------------------------------------------------------


 INCAR:
 POTCAR:    PAW_PBE S 06Sep2000                   
 POTCAR:    PAW_PBE Pb 08Apr2002                  

 ----------------------------------------------------------------------------- 
|                                                                             |
|           W    W    AA    RRRRR   N    N  II  N    N   GGGG   !!!           |
|           W    W   A  A   R    R  NN   N  II  NN   N  G    G  !!!           |
|           W    W  A    A  R    R  N N  N  II  N N  N  G       !!!           |
|           W WW W  AAAAAA  RRRRR   N  N N  II  N  N N  G  GGG   !            |
|           WW  WW  A    A  R   R   N   NN  II  N   NN  G    G                |
|           W    W  A    A  R    R  N    N  II  N    N   GGGG   !!!           |
|                                                                             |
|      For optimal performance we recommend to set                            |
|        NCORE= 4 - approx SQRT( number of cores)                             |
|      NCORE specifies how many cores store one orbital (NPAR=cpu/NCORE).     |
|      This setting can  greatly improve the performance of VASP for DFT.     |
|      The default,   NCORE=1            might be grossly inefficient         |
|      on modern multi-core architectures or massively parallel machines.     |
|      Do your own testing !!!!                                               |
|      Unfortunately you need to use the default for GW and RPA calculations. |
|      (for HF NCORE is supported but not extensively tested yet)             |
|                                                                             |
 ----------------------------------------------------------------------------- 

 POTCAR:    PAW_PBE S 06Sep2000                   
   VRHFIN =S : s2p4                                                             
   LEXCH  = PE                                                                  
   EATOM  =   276.8230 eV,   20.3459 Ry                                         
                                                                                
   TITEL  = PAW_PBE S 06Sep2000                                                 
   LULTRA =        F    use ultrasoft PP ?                                      
   IUNSCR =        1    unscreen: 0-lin 1-nonlin 2-no                           
   RPACOR =    1.500    partial core radius                                     
   POMASS =   32.066; ZVAL   =    6.000    mass and valenz                      
   RCORE  =    1.900    outmost cutoff radius                                   
   RWIGS  =    2.200; RWIGS  =    1.164    wigner-seitz radius (au A)           
   ENMAX  =  258.689; ENMIN  =  194.016 eV                                      
   ICORE  =        2    local potential                                         
   LCOR   =        T    correct aug charges                                     
   LPAW   =        T    paw PP                                                  
   EAUG   =  335.092                                                            
   DEXC   =    0.000                                                            
   RMAX   =    1.942    core radius for proj-oper                               
   RAUG   =    1.300    factor for augmentation sphere                          
   RDEP   =    1.954    radius for radial grids                                 
   RDEPT  =    1.744    core radius for aug-charge                              
                                                                                
   Atomic configuration                                                         
    6 entries                                                                   
     n  l   j            E        occ.                                          
     1  0  0.50     -2405.8406   2.0000                                         
     2  0  0.50      -211.7007   2.0000                                         
     2  1  1.50      -156.4958   6.0000                                         
     3  0  0.50       -17.2562   2.0000                                         
     3  1  0.50        -7.0085   4.0000                                         
     3  2  1.50        -6.8029   0.0000                                         
   Description                                                                  
     l       E           TYP  RCUT    TYP  RCUT                                 
     0    -17.2561641     23  1.900                                             
     0    -15.8743224     23  1.900                                             
     1     -7.0085400     23  1.900                                             
     1     -2.7779785     23  1.900                                             
     2     -6.8029130     23  1.900                                             
  local pseudopotential read in
  partial core-charges read in
  partial kinetic energy density read in
  atomic valenz-charges read in
  non local Contribution for L=           0  read in
    real space projection operators read in
  non local Contribution for L=           0  read in
    real space projection operators read in
  non local Contribution for L=           1  read in
    real space projection operators read in
  non local Contribution for L=           1  read in
    real space projection operators read in
    PAW grid and wavefunctions read in
 
   number of l-projection  operators is LMAX  =           4
   number of lm-projection operators is LMMAX =           8
 
 POTCAR:    PAW_PBE Pb 08Apr2002                  
   VRHFIN =Pb:                                                                  
   LEXCH  = PE                                                                  
   EATOM  =    96.9868 eV,    7.1283 Ry                                         
                                                                                
   TITEL  = PAW_PBE Pb 08Apr2002                                                
   LULTRA =        F    use ultrasoft PP ?                                      
   IUNSCR =        1    unscreen: 0-lin 1-nonlin 2-no                           
   RPACOR =    2.200    partial core radius                                     
   POMASS =  207.200; ZVAL   =    4.000    mass and valenz                      
   RCORE  =    3.100    outmost cutoff radius                                   
   RWIGS  =    3.260; RWIGS  =    1.725    wigner-seitz radius (au A)           
   ENMAX  =   97.973; ENMIN  =   73.480 eV                                      
   ICORE  =        3    local potential                                         
   LCOR   =        T    correct aug charges                                     
   LPAW   =        T    paw PP                                                  
   EAUG   =  234.873                                                            
   DEXC   =    0.000                                                            
   RMAX   =    3.158    core radius for proj-oper                               
   RAUG   =    1.300    factor for augmentation sphere                          
   RDEP   =    3.202    radius for radial grids                                 
   RDEPT  =    2.659    core radius for aug-charge                              
                                                                                
   Atomic configuration                                                         
   17 entries                                                                   
     n  l   j            E        occ.                                          
     1  0  0.50    -88091.8466   2.0000                                         
     2  0  0.50    -15753.4197   2.0000                                         
     2  1  1.50    -13508.1797   6.0000                                         
     3  0  0.50     -3781.7194   2.0000                                         
     3  1  1.50     -3138.2529   6.0000                                         
     3  2  2.50     -2483.2977  10.0000                                         
     4  0  0.50      -856.2895   2.0000                                         
     4  1  1.50      -645.4943   6.0000                                         
     4  2  2.50      -401.8768  10.0000                                         
     4  3  3.50      -132.9059  14.0000                                         
     5  0  0.50      -144.0950   2.0000                                         
     5  1  1.50       -85.7879   6.0000                                         
     5  2  2.50       -21.1769  10.0000                                         
     6  0  0.50       -12.0372   2.0000                                         
     6  1  1.50        -3.4971   2.0000                                         
     6  2  2.50        -1.3606   0.0000                                         
     5  3  2.50        -2.7212   0.0000                                         
   Description                                                                  
     l       E           TYP  RCUT    TYP  RCUT                                 
     0    -12.0371566     23  3.100                                             
     0    -13.3977392     23  3.100                                             
     1     -3.4971341     23  3.100                                             
     1     -5.4423304     23  3.100                                             
     2     -1.3605826     23  3.100                                             
     3     -1.3605826     23  3.100                                             
  local pseudopotential read in
  partial core-charges read in
  partial kinetic energy density read in
  atomic valenz-charges read in
  non local Contribution for L=           0  read in
    real space projection operators read in
  non local Contribution for L=           0  read in
    real space projection operators read in
  non local Contribution for L=           1  read in
    real space projection operators read in
  non local Contribution for L=           1  read in
    real space projection operators read in
  non local Contribution for L=           2  read in
    real space projection operators read in
    PAW grid and wavefunctions read in
 
   number of l-projection  operators is LMAX  =           5
   number of lm-projection operators is LMMAX =          13
 
 WARNING: PSMAXN for non-local potential too small
          PSMAXN should be >   12.5490833729506       NTYP=           2
  PAW_PBE S 06Sep2000                   :
 energy of atom  1       EATOM= -276.8230
 kinetic energy error for atom=    0.0009 (will be added to EATOM!!)
  PAW_PBE Pb 08Apr2002                  :
 energy of atom  2       EATOM=  -96.9868
 kinetic energy error for atom=    0.0000 (will be added to EATOM!!)
 
 
 POSCAR: S  Pb                                   
  positions in direct lattice
  No initial velocities read in
 exchange correlation table for  LEXCH =        8
   RHO(1)=    0.500       N(1)  =     2000
   RHO(2)=  100.500       N(2)  =     4000
 


--------------------------------------------------------------------------------------------------------


 ion  position               nearest neighbor table
   1  0.500  0.389  0.604-   7 2.82   7 2.82  11 2.90  10 3.15  10 3.15
   2  0.500  0.389  0.396-   8 2.82   8 2.82  11 2.90   9 3.15   9 3.15
   3  0.500  0.889  0.396-   9 2.82   9 2.82  12 2.90   8 3.15   8 3.15
   4  0.500  0.889  0.604-  10 2.82  10 2.82  12 2.90   7 3.15   7 3.15
   5  1.000  0.651  0.500-   9 2.89  10 2.89  11 2.96  11 2.96  12 3.00  12 3.00
   6  1.000  0.151  0.500-   8 2.89   7 2.89  12 2.96  12 2.96  11 3.00  11 3.00
   7  1.000  0.166  0.604-   1 2.82   1 2.82   6 2.89   4 3.15   4 3.15  11 4.10  11 4.10
   8  0.000  0.166  0.396-   2 2.82   2 2.82   6 2.89   3 3.15   3 3.15  11 4.10  11 4.10
   9  1.000  0.666  0.396-   3 2.82   3 2.82   5 2.89   2 3.15   2 3.15  12 4.10  12 4.10
  10  0.000  0.666  0.604-   4 2.82   4 2.82   5 2.89   1 3.15   1 3.15  12 4.10  12 4.10
  11  0.500  0.405  0.500-   2 2.90   1 2.90   5 2.96   5 2.96   6 3.00   6 3.00   8 4.10   7 4.10
                             8 4.10   7 4.10
  12  0.500  0.905  0.500-   3 2.90   4 2.90   6 2.96   6 2.96   5 3.00   5 3.00   9 4.10  10 4.10
                             9 4.10  10 4.10
 
  LATTYP: Found a simple orthorhombic cell.
 ALAT       =     4.1822670133
 B/A-ratio  =     2.0301817298
 C/A-ratio  =     6.6510829561
  
  Lattice vectors:
  
 A1 = (   4.1822670133,   0.0000000000,   0.0000000000)
 A2 = (   0.0000000000,   8.4907620798,   0.0000000000)
 A3 = (   0.0000000000,   0.0000000000,  27.8166048500)


Analysis of symmetry for initial positions (statically):
=====================================================================
 Subroutine PRICEL returns following result:
 
  LATTYP: Found a simple orthorhombic cell.
 ALAT       =     4.1822670133
 B/A-ratio  =     1.0150908649
 C/A-ratio  =     6.6510829561
  
  Lattice vectors:
  
 A1 = (   4.1822670133,   0.0000000000,   0.0000000000)
 A2 = (   0.0000000000,   4.2453810399,   0.0000000032)
 A3 = (   0.0000000000,   0.0000000000,  27.8166048500)
 
   2 primitive cells build up your supercell.
 

 Routine SETGRP: Setting up the symmetry group for a 
 simple orthorhombic supercell.


 Subroutine GETGRP returns: Found  4 space group operations
 (whereof  4 operations were pure point group operations)
 out of a pool of  8 trial point group operations.


The static configuration has the point symmetry C_2v.


Analysis of symmetry for dynamics (positions and initial velocities):
=====================================================================
 Subroutine PRICEL returns following result:
 
  LATTYP: Found a simple orthorhombic cell.
 ALAT       =     4.1822670133
 B/A-ratio  =     1.0150908649
 C/A-ratio  =     6.6510829561
  
  Lattice vectors:
  
 A1 = (   4.1822670133,   0.0000000000,   0.0000000000)
 A2 = (   0.0000000000,   4.2453810399,   0.0000000032)
 A3 = (   0.0000000000,   0.0000000000,  27.8166048500)
 
   2 primitive cells build up your supercell.
 

 Routine SETGRP: Setting up the symmetry group for a 
 simple orthorhombic supercell.


 Subroutine GETGRP returns: Found  4 space group operations
 (whereof  4 operations were pure point group operations)
 out of a pool of  8 trial point group operations.


The dynamic configuration has the point symmetry C_2v.


 Subroutine INISYM returns: Found  4 space group operations
 (whereof  4 operations are pure point group operations),
 and found     2 'primitive' translations

 
 
 KPOINTS: K-Spacing Value to Generate K-Mesh: 0.02

Automatic generation of k-mesh.
Space group operators:
 irot       det(A)        alpha          n_x          n_y          n_z        tau_x        tau_y        tau_z
    1     1.000000     0.000000     1.000000     0.000000     0.000000     0.000000     0.000000     0.000000
    2    -1.000000   180.000000     0.000000     0.000000     1.000000     0.000000     0.000000     0.000000
    3     1.000000   180.000000     0.000000     1.000000     0.000000     0.000000     0.000000     0.000000
    4    -1.000000   180.000000     1.000000     0.000000     0.000000     0.000000     0.000000     0.000000
 
 Subroutine IBZKPT returns following result:
 ===========================================
 
 Found     15 irreducible k-points:
 
 Following reciprocal coordinates:
            Coordinates               Weight
  0.050000  0.000000  0.000000      2.000000
  0.150000  0.000000  0.000000      2.000000
  0.250000  0.000000  0.000000      2.000000
  0.350000  0.000000  0.000000      2.000000
  0.450000  0.000000  0.000000      2.000000
  0.050000  0.200000  0.000000      4.000000
  0.150000  0.200000  0.000000      4.000000
  0.250000  0.200000  0.000000      4.000000
  0.350000  0.200000  0.000000      4.000000
  0.450000  0.200000  0.000000      4.000000
  0.050000  0.400000  0.000000      4.000000
  0.150000  0.400000  0.000000      4.000000
  0.250000  0.400000  0.000000      4.000000
  0.350000  0.400000  0.000000      4.000000
  0.450000  0.400000  0.000000      4.000000
 
 Following cartesian coordinates:
            Coordinates               Weight
  0.011955  0.000000  0.000000      2.000000
  0.035866  0.000000  0.000000      2.000000
  0.059776  0.000000  0.000000      2.000000
  0.083687  0.000000  0.000000      2.000000
  0.107597  0.000000  0.000000      2.000000
  0.011955  0.023555  0.000000      4.000000
  0.035866  0.023555  0.000000      4.000000
  0.059776  0.023555  0.000000      4.000000
  0.083687  0.023555  0.000000      4.000000
  0.107597  0.023555  0.000000      4.000000
  0.011955  0.047110  0.000000      4.000000
  0.035866  0.047110  0.000000      4.000000
  0.059776  0.047110  0.000000      4.000000
  0.083687  0.047110  0.000000      4.000000
  0.107597  0.047110  0.000000      4.000000
 
 
 Subroutine IBZKPT_HF returns following result:
 ==============================================
 
 Found     50 k-points in 1st BZ
 the following     50 k-points will be used (e.g. in the exchange kernel)
 Following reciprocal coordinates:   # in IRBZ
  0.050000  0.000000  0.000000    0.02000000   1 t-inv F
  0.150000  0.000000  0.000000    0.02000000   2 t-inv F
  0.250000  0.000000  0.000000    0.02000000   3 t-inv F
  0.350000  0.000000  0.000000    0.02000000   4 t-inv F
  0.450000  0.000000  0.000000    0.02000000   5 t-inv F
  0.050000  0.200000  0.000000    0.02000000   6 t-inv F
  0.150000  0.200000  0.000000    0.02000000   7 t-inv F
  0.250000  0.200000  0.000000    0.02000000   8 t-inv F
  0.350000  0.200000  0.000000    0.02000000   9 t-inv F
  0.450000  0.200000  0.000000    0.02000000  10 t-inv F
  0.050000  0.400000  0.000000    0.02000000  11 t-inv F
  0.150000  0.400000  0.000000    0.02000000  12 t-inv F
  0.250000  0.400000  0.000000    0.02000000  13 t-inv F
  0.350000  0.400000  0.000000    0.02000000  14 t-inv F
  0.450000  0.400000  0.000000    0.02000000  15 t-inv F
 -0.050000  0.000000  0.000000    0.02000000   1 t-inv F
 -0.150000  0.000000  0.000000    0.02000000   2 t-inv F
 -0.250000  0.000000  0.000000    0.02000000   3 t-inv F
 -0.350000  0.000000  0.000000    0.02000000   4 t-inv F
 -0.450000  0.000000  0.000000    0.02000000   5 t-inv F
 -0.050000  0.200000  0.000000    0.02000000   6 t-inv F
 -0.150000  0.200000  0.000000    0.02000000   7 t-inv F
 -0.250000  0.200000  0.000000    0.02000000   8 t-inv F
 -0.350000  0.200000  0.000000    0.02000000   9 t-inv F
 -0.450000  0.200000  0.000000    0.02000000  10 t-inv F
 -0.050000  0.400000  0.000000    0.02000000  11 t-inv F
 -0.150000  0.400000  0.000000    0.02000000  12 t-inv F
 -0.250000  0.400000  0.000000    0.02000000  13 t-inv F
 -0.350000  0.400000  0.000000    0.02000000  14 t-inv F
 -0.450000  0.400000  0.000000    0.02000000  15 t-inv F
 -0.050000 -0.200000  0.000000    0.02000000   6 t-inv T
  0.050000 -0.200000  0.000000    0.02000000   6 t-inv T
 -0.150000 -0.200000  0.000000    0.02000000   7 t-inv T
  0.150000 -0.200000  0.000000    0.02000000   7 t-inv T
 -0.250000 -0.200000  0.000000    0.02000000   8 t-inv T
  0.250000 -0.200000  0.000000    0.02000000   8 t-inv T
 -0.350000 -0.200000  0.000000    0.02000000   9 t-inv T
  0.350000 -0.200000  0.000000    0.02000000   9 t-inv T
 -0.450000 -0.200000  0.000000    0.02000000  10 t-inv T
  0.450000 -0.200000  0.000000    0.02000000  10 t-inv T
 -0.050000 -0.400000  0.000000    0.02000000  11 t-inv T
  0.050000 -0.400000  0.000000    0.02000000  11 t-inv T
 -0.150000 -0.400000  0.000000    0.02000000  12 t-inv T
  0.150000 -0.400000  0.000000    0.02000000  12 t-inv T
 -0.250000 -0.400000  0.000000    0.02000000  13 t-inv T
  0.250000 -0.400000  0.000000    0.02000000  13 t-inv T
 -0.350000 -0.400000  0.000000    0.02000000  14 t-inv T
  0.350000 -0.400000  0.000000    0.02000000  14 t-inv T
 -0.450000 -0.400000  0.000000    0.02000000  15 t-inv T
  0.450000 -0.400000  0.000000    0.02000000  15 t-inv T


--------------------------------------------------------------------------------------------------------




 Dimension of arrays:
   k-points           NKPTS =     15   k-points in BZ     NKDIM =     15   number of bands    NBANDS=    128
   number of dos      NEDOS =    301   number of ions     NIONS =     12
   non local maximal  LDIM  =      5   non local SUM 2l+1 LMDIM =     13
   total plane-waves  NPLWV = 564480
   max r-space proj   IRMAX =      1   max aug-charges    IRDMAX=  65589
   dimension x,y,z NGX =    36 NGY =   70 NGZ =  224
   dimension x,y,z NGXF=    72 NGYF=  140 NGZF=  448
   support grid    NGXF=    72 NGYF=  140 NGZF=  448
   ions per type =               6   6
   NGX,Y,Z   is equivalent  to a cutoff of  14.31, 13.71, 13.39 a.u.
   NGXF,Y,Z  is equivalent  to a cutoff of  28.62, 27.41, 26.77 a.u.

 SYSTEM =  unknown system                          
 POSCAR =  S  Pb                                   

 Startparameter for this run:
   NWRITE =      2    write-flag & timer
   PREC   = accura    normal or accurate (medium, high low for compatibility)
   ISTART =      0    job   : 0-new  1-cont  2-samecut
   ICHARG =      2    charge: 1-file 2-atom 10-const
   ISPIN  =      1    spin polarized calculation?
   LNONCOLLINEAR =      F non collinear calculations
   LSORBIT =      F    spin-orbit coupling
   INIWAV =      1    electr: 0-lowe 1-rand  2-diag
   LASPH  =      F    aspherical Exc in radial PAW
   METAGGA=      F    non-selfconsistent MetaGGA calc.

 Electronic Relaxation 1
   ENCUT  =  600.0 eV  44.10 Ry    6.64 a.u.   8.35 16.96 55.56*2*pi/ulx,y,z
   ENINI  =  600.0     initial cutoff
   ENAUG  =  335.1 eV  augmentation charge cutoff
   NELM   =     60;   NELMIN=  2; NELMDL= -5     # of ELM steps 
   EDIFF  = 0.1E-07   stopping-criterion for ELM
   LREAL  =      F    real-space projection
   NLSPLINE    = F    spline interpolate recip. space projectors
   LCOMPAT=      F    compatible to vasp.4.4
   GGA_COMPAT  = T    GGA compatible to vasp.4.4-vasp.4.6
   LMAXPAW     = -100 max onsite density
   LMAXMIX     =    2 max onsite mixed and CHGCAR
   VOSKOWN=      0    Vosko Wilk Nusair interpolation
   ROPT   =    0.00000   0.00000
 Ionic relaxation
   EDIFFG = -.1E-02   stopping-criterion for IOM
   NSW    =      1    number of steps for IOM
   NBLOCK =      1;   KBLOCK =      1    inner block; outer block 
   IBRION =      8    ionic relax: 0-MD 1-quasi-New 2-CG
   NFREE  =      0    steps in history (QN), initial steepest desc. (CG)
   ISIF   =      3    stress and relaxation
   IWAVPR =     11    prediction:  0-non 1-charg 2-wave 3-comb
   ISYM   =      2    0-nonsym 1-usesym 2-fastsym
   LCORR  =      T    Harris-Foulkes like correction to forces

   POTIM  = 0.5000    time-step for ionic-motion
   TEIN   =    0.0    initial temperature
   TEBEG  =    0.0;   TEEND  =   0.0 temperature during run
   SMASS  =  -3.00    Nose mass-parameter (am)
   estimated Nose-frequenzy (Omega)   =  0.10E-29 period in steps =****** mass=  -0.400E-27a.u.
   SCALEE = 1.0000    scale energy and forces
   NPACO  =    256;   APACO  = 16.0  distance and # of slots for P.C.
   PSTRESS=    0.0 pullay stress

  Mass of Ions in am
   POMASS =  32.07207.20
  Ionic Valenz
   ZVAL   =   6.00  4.00
  Atomic Wigner-Seitz radii
   RWIGS  =  -1.00 -1.00
  virtual crystal weights 
   VCA    =   1.00  1.00
   NELECT =      60.0000    total number of electrons
   NUPDOWN=      -1.0000    fix difference up-down

 DOS related values:
   EMIN   =  10.00;   EMAX   =-10.00  energy-range for DOS
   EFERMI =   0.00
   ISMEAR =     0;   SIGMA  =   0.10  broadening in eV -4-tet -1-fermi 0-gaus

 Electronic relaxation 2 (details)
   IALGO  =     38    algorithm
   LDIAG  =      T    sub-space diagonalisation (order eigenvalues)
   LSUBROT=      F    optimize rotation matrix (better conditioning)
   TURBO    =      0    0=normal 1=particle mesh
   IRESTART =      0    0=no restart 2=restart with 2 vectors
   NREBOOT  =      0    no. of reboots
   NMIN     =      0    reboot dimension
   EREF     =   0.00    reference energy to select bands
   IMIX   =      4    mixing-type and parameters
     AMIX     =   0.40;   BMIX     =  1.00
     AMIX_MAG =   1.60;   BMIX_MAG =  1.00
     AMIN     =   0.10
     WC   =   100.;   INIMIX=   1;  MIXPRE=   1;  MAXMIX= -45

 Intra band minimization:
   WEIMIN = 0.0010     energy-eigenvalue tresh-hold
   EBREAK =  0.20E-10  absolut break condition
   DEPER  =   0.30     relativ break condition  

   TIME   =   0.40     timestep for ELM

  volume/ion in A,a.u.               =      82.32       555.49
  Fermi-wavevector in a.u.,A,eV,Ry     =   0.643533  1.216102  5.634651  0.414135
  Thomas-Fermi vector in A             =   1.710564
 
 Write flags
   LWAVE        =      T    write WAVECAR
   LDOWNSAMPLE  =      F    k-point downsampling of WAVECAR
   LCHARG       =      T    write CHGCAR
   LVTOT        =      F    write LOCPOT, total local potential
   LVHAR        =      F    write LOCPOT, Hartree potential only
   LELF         =      F    write electronic localiz. function (ELF)
   LORBIT       =      0    0 simple, 1 ext, 2 COOP (PROOUT), +10 PAW based schemes


 Dipole corrections
   LMONO  =      F    monopole corrections only (constant potential shift)
   LDIPOL =      T    correct potential (dipole corrections)
   IDIPOL =      3    1-x, 2-y, 3-z, 4-all directions 
   EPSILON=  1.0000000 bulk dielectric constant

 Exchange correlation treatment:
   GGA     =    PE    GGA type
   LEXCH   =     8    internal setting for exchange type
   VOSKOWN=      0    Vosko Wilk Nusair interpolation
   LHFCALC =     F    Hartree Fock is set to
   LHFONE  =     F    Hartree Fock one center treatment
   AEXX    =    0.0000 exact exchange contribution

 Linear response parameters
   LEPSILON=     T    determine dielectric tensor
   LRPA    =     F    only Hartree local field effects (RPA)
   LNABLA  =     F    use nabla operator in PAW spheres
   LVEL    =     F    velocity operator in full k-point grid
   LINTERFAST=   F  fast interpolation
   KINTER  =     0    interpolate to denser k-point grid
   CSHIFT  =0.1000    complex shift for real part using Kramers Kronig
   OMEGAMAX=  -1.0    maximum frequency
   DEG_THRESHOLD= 0.2000000E-02 threshold for treating states as degnerate
   RTIME   =   -0.100 relaxation time in fs
  (WPLASMAI=    0.000 imaginary part of plasma frequency in eV, 0.658/RTIME)
   DFIELD  = 0.0000000 0.0000000 0.0000000 field for delta impulse in time
 
 Orbital magnetization related:
   ORBITALMAG=     F  switch on orbital magnetization
   LCHIMAG   =     F  perturbation theory with respect to B field
   DQ        =  0.001000  dq finite difference perturbation B field
   LLRAUG    =     F  two centre corrections for induced B field



--------------------------------------------------------------------------------------------------------


 linear response using symmetry
 charge density and potential will be updated during run
 non-spin polarized calculation
 Variant of blocked Davidson
 Davidson routine will perform the subspace rotation
 perform sub-space diagonalisation
    after iterative eigenvector-optimisation
 modified Broyden-mixing scheme, WC =      100.0
 initial mixing is a Kerker type mixing with AMIX =  0.4000 and BMIX =      1.0000
 Hartree-type preconditioning will be used
 using additional bands           98
 reciprocal scheme for non local part
 use partial core corrections
 calculate Harris-corrections to forces 
   (improved forces if not selfconsistent)
 use gradient corrections 
 use of overlap-Matrix (Vanderbilt PP)
 Gauss-broadening in eV      SIGMA  =   0.10


--------------------------------------------------------------------------------------------------------


  energy-cutoff  :      600.00
  volume of cell :      987.79
      direct lattice vectors                 reciprocal lattice vectors
     4.182267013  0.000000000  0.000000000     0.239104772  0.000000000  0.000000000
     0.000000000  8.490762080  0.000000000     0.000000000  0.117775058  0.000000000
     0.000000000  0.000000000 27.816604850     0.000000000  0.000000000  0.035949750

  length of vectors
     4.182267013  8.490762080 27.816604850     0.239104772  0.117775058  0.035949750


 
 k-points in units of 2pi/SCALE and weight: K-Spacing Value to Generate K-Mesh: 0.02
   0.01195524  0.00000000  0.00000000       0.040
   0.03586572  0.00000000  0.00000000       0.040
   0.05977619  0.00000000  0.00000000       0.040
   0.08368667  0.00000000  0.00000000       0.040
   0.10759715  0.00000000  0.00000000       0.040
   0.01195524  0.02355501  0.00000000       0.080
   0.03586572  0.02355501  0.00000000       0.080
   0.05977619  0.02355501  0.00000000       0.080
   0.08368667  0.02355501  0.00000000       0.080
   0.10759715  0.02355501  0.00000000       0.080
   0.01195524  0.04711002  0.00000000       0.080
   0.03586572  0.04711002  0.00000000       0.080
   0.05977619  0.04711002  0.00000000       0.080
   0.08368667  0.04711002  0.00000000       0.080
   0.10759715  0.04711002  0.00000000       0.080
 
 k-points in reciprocal lattice and weights: K-Spacing Value to Generate K-Mesh: 0.02
   0.05000000  0.00000000  0.00000000       0.040
   0.15000000  0.00000000  0.00000000       0.040
   0.25000000  0.00000000  0.00000000       0.040
   0.35000000  0.00000000  0.00000000       0.040
   0.45000000  0.00000000  0.00000000       0.040
   0.05000000  0.20000000  0.00000000       0.080
   0.15000000  0.20000000  0.00000000       0.080
   0.25000000  0.20000000  0.00000000       0.080
   0.35000000  0.20000000  0.00000000       0.080
   0.45000000  0.20000000  0.00000000       0.080
   0.05000000  0.40000000  0.00000000       0.080
   0.15000000  0.40000000  0.00000000       0.080
   0.25000000  0.40000000  0.00000000       0.080
   0.35000000  0.40000000  0.00000000       0.080
   0.45000000  0.40000000  0.00000000       0.080
 
 position of ions in fractional coordinates (direct lattice) 
   0.49999997  0.38899424  0.60422389
   0.50000002  0.38899425  0.39577612
   0.49999997  0.88899425  0.39577612
   0.50000002  0.88899424  0.60422389
   1.00000000  0.65136464  0.50000000
   1.00000000  0.15136464  0.50000000
   0.99999974  0.16593870  0.60388564
   0.00000026  0.16593870  0.39611436
   0.99999974  0.66593870  0.39611436
   0.00000026  0.66593870  0.60388564
   0.50000000  0.40489164  0.50000000
   0.50000000  0.90489164  0.50000000
 
 position of ions in cartesian coordinates  (Angst):
   2.09113340  3.30285758 16.80745709
   2.09113361  3.30285763 11.00914783
   2.09113340  7.54823867 11.00914783
   2.09113361  7.54823862 16.80745709
   4.18226701  5.53058220 13.90830237
   4.18226701  1.28520116 13.90830237
   4.18226592  1.40894605 16.79804829
   0.00000108  1.40894606 11.01855657
   4.18226592  5.65432710 11.01855657
   0.00000108  5.65432709 16.79804829
   2.09113350  3.43783856 13.90830241
   2.09113350  7.68321960 13.90830241
 


--------------------------------------------------------------------------------------------------------


 k-point  1 :   0.0500 0.0000 0.0000  plane waves:   32967
 k-point  2 :   0.1500 0.0000 0.0000  plane waves:   32949
 k-point  3 :   0.2500 0.0000 0.0000  plane waves:   32943
 k-point  4 :   0.3500 0.0000 0.0000  plane waves:   32919
 k-point  5 :   0.4500 0.0000 0.0000  plane waves:   32956
 k-point  6 :   0.0500 0.2000 0.0000  plane waves:   32999
 k-point  7 :   0.1500 0.2000 0.0000  plane waves:   32983
 k-point  8 :   0.2500 0.2000 0.0000  plane waves:   32970
 k-point  9 :   0.3500 0.2000 0.0000  plane waves:   32937
 k-point 10 :   0.4500 0.2000 0.0000  plane waves:   32938
 k-point 11 :   0.0500 0.4000 0.0000  plane waves:   33023
 k-point 12 :   0.1500 0.4000 0.0000  plane waves:   33002
 k-point 13 :   0.2500 0.4000 0.0000  plane waves:   32973
 k-point 14 :   0.3500 0.4000 0.0000  plane waves:   32930
 k-point 15 :   0.4500 0.4000 0.0000  plane waves:   32938

 maximum and minimum number of plane-waves per node :     33023    32919

 maximum number of plane-waves:     33023
 maximum index in each direction: 
   IXMAX=    8   IYMAX=   16   IZMAX=   55
   IXMIN=   -8   IYMIN=  -17   IZMIN=  -55


 serial   3D FFT for wavefunctions
 parallel 3D FFT for charge:
    minimum data exchange during FFTs selected (reduces bandwidth)


 total amount of memory used by VASP MPI-rank0   177824. kBytes
=======================================================================

   base      :      30000. kBytes
   nonl-proj :     109375. kBytes
   fftplans  :       4253. kBytes
   grid      :      26143. kBytes
   one-center:         97. kBytes
   wavefun   :       7956. kBytes
 
     INWAV:  cpu time    0.0000: real time    0.0000
 Broyden mixing: mesh for mixing (old mesh)
   NGX = 17   NGY = 33   NGZ =111
  (NGX  = 72   NGY  =140   NGZ  =448)
  gives a total of  62271 points

 initial charge density was supplied:
 charge density of overlapping atoms calculated
 number of electron      60.0000000 magnetization 
 keeping initial charge density in first step


--------------------------------------------------------------------------------------------------------


 Maximum index for augmentation-charges         1857 (set IRDMAX)


--------------------------------------------------------------------------------------------------------


 First call to EWALD:  gamma=   0.178
 Maximum number of real-space cells 6x 3x 1
 Maximum number of reciprocal cells 1x 2x 7

    FEWALD:  cpu time    0.0013: real time    0.0013


--------------------------------------- Iteration      1(   1)  ---------------------------------------


    POTLOK:  cpu time    0.0762: real time    0.1422
    SETDIJ:  cpu time    0.0152: real time    0.0155
     EDDAV:  cpu time   12.1189: real time   12.2955
       DOS:  cpu time    0.0014: real time    0.0014
    --------------------------------------------
      LOOP:  cpu time   12.2117: real time   12.4547

 eigenvalue-minimisations  :  3840
 total energy-change (2. order) : 0.2668253E+03  (-0.2193785E+04)
 number of electron      60.0000000 magnetization 
 augmentation part       60.0000000 magnetization 

 DIPCOR: dipole corrections for dipol
 direction  3 min pos     1,
 dipolmoment           0.000000      0.000000      0.000000 electrons x Angstroem
 Tr[quadrupol]      -446.525888

 energy correction for charged system         0.000000 eV
 dipol+quadrupol energy correction           -0.000000 eV
 added-field ion interaction         -0.000000 eV  (added to PSCEN)


 Free energy of the ion-electron system (eV)
  ---------------------------------------------------
  alpha Z        PSCENC =        17.47731182
  Ewald energy   TEWEN  =      8437.36301691
  -Hartree energ DENC   =    -10372.83323408
  -exchange      EXHF   =         0.00000000
  -V(xc)+E(xc)   XCENC  =      -702.17691594
  PAW double counting   =      2504.01617717    -1681.20004824
  entropy T*S    EENTRO =        -0.04331866
  eigenvalues    EBANDS =      -178.63111595
  atomic energy  EATOM  =      2242.85346269
  Solvation  Ediel_sol  =         0.00000000
  ---------------------------------------------------
  free energy    TOTEN  =       266.82533572 eV

  energy without entropy =      266.86865438  energy(sigma->0) =      266.84699505


--------------------------------------------------------------------------------------------------------




--------------------------------------- Iteration      1(   2)  ---------------------------------------


     EDDAV:  cpu time   21.0455: real time   21.2446
       DOS:  cpu time    0.0008: real time    0.0008
    --------------------------------------------
      LOOP:  cpu time   21.0463: real time   21.2454

 eigenvalue-minimisations  :  5760
 total energy-change (2. order) :-0.3113000E+03  (-0.3081867E+03)
 number of electron      60.0000000 magnetization 
 augmentation part       60.0000000 magnetization 

 DIPCOR: dipole corrections for dipol
 direction  3 min pos     1,
 dipolmoment           0.000000      0.000000      0.000000 electrons x Angstroem
 Tr[quadrupol]      -446.525888

 energy correction for charged system         0.000000 eV
 dipol+quadrupol energy correction           -0.000000 eV
 added-field ion interaction         -0.000000 eV  (added to PSCEN)


 Free energy of the ion-electron system (eV)
  ---------------------------------------------------
  alpha Z        PSCENC =        17.47731182
  Ewald energy   TEWEN  =      8437.36301691
  -Hartree energ DENC   =    -10372.83323408
  -exchange      EXHF   =         0.00000000
  -V(xc)+E(xc)   XCENC  =      -702.17691594
  PAW double counting   =      2504.01617717    -1681.20004824
  entropy T*S    EENTRO =        -0.00000000
  eigenvalues    EBANDS =      -489.97442701
  atomic energy  EATOM  =      2242.85346269
  Solvation  Ediel_sol  =         0.00000000
  ---------------------------------------------------
  free energy    TOTEN  =       -44.47465668 eV

  energy without entropy =      -44.47465668  energy(sigma->0) =      -44.47465668


--------------------------------------------------------------------------------------------------------




--------------------------------------- Iteration      1(   3)  ---------------------------------------


     EDDAV:  cpu time   14.6928: real time   14.8516
       DOS:  cpu time    0.0008: real time    0.0008
    --------------------------------------------
      LOOP:  cpu time   14.6936: real time   14.8525

 eigenvalue-minimisations  :  4352
 total energy-change (2. order) :-0.1095521E+02  (-0.1095521E+02)
 number of electron      60.0000000 magnetization 
 augmentation part       60.0000000 magnetization 

 DIPCOR: dipole corrections for dipol
 direction  3 min pos     1,
 dipolmoment           0.000000      0.000000      0.000000 electrons x Angstroem
 Tr[quadrupol]      -446.525888

 energy correction for charged system         0.000000 eV
 dipol+quadrupol energy correction           -0.000000 eV
 added-field ion interaction         -0.000000 eV  (added to PSCEN)


 Free energy of the ion-electron system (eV)
  ---------------------------------------------------
  alpha Z        PSCENC =        17.47731182
  Ewald energy   TEWEN  =      8437.36301691
  -Hartree energ DENC   =    -10372.83323408
  -exchange      EXHF   =         0.00000000
  -V(xc)+E(xc)   XCENC  =      -702.17691594
  PAW double counting   =      2504.01617717    -1681.20004824
  entropy T*S    EENTRO =        -0.00000000
  eigenvalues    EBANDS =      -500.92963710
  atomic energy  EATOM  =      2242.85346269
  Solvation  Ediel_sol  =         0.00000000
  ---------------------------------------------------
  free energy    TOTEN  =       -55.42986677 eV

  energy without entropy =      -55.42986677  energy(sigma->0) =      -55.42986677


--------------------------------------------------------------------------------------------------------




--------------------------------------- Iteration      1(   4)  ---------------------------------------


     EDDAV:  cpu time   39.8187: real time   40.3205
       DOS:  cpu time    0.0009: real time    0.0009
    --------------------------------------------
      LOOP:  cpu time   39.8196: real time   40.3214

 eigenvalue-minimisations  :  7680
 total energy-change (2. order) :-0.8674789E-01  (-0.8674789E-01)
 number of electron      60.0000000 magnetization 
 augmentation part       60.0000000 magnetization 

 DIPCOR: dipole corrections for dipol
 direction  3 min pos     1,
 dipolmoment           0.000000      0.000000      0.000000 electrons x Angstroem
 Tr[quadrupol]      -446.525888

 energy correction for charged system         0.000000 eV
 dipol+quadrupol energy correction           -0.000000 eV
 added-field ion interaction         -0.000000 eV  (added to PSCEN)


 Free energy of the ion-electron system (eV)
  ---------------------------------------------------
  alpha Z        PSCENC =        17.47731182
  Ewald energy   TEWEN  =      8437.36301691
  -Hartree energ DENC   =    -10372.83323408
  -exchange      EXHF   =         0.00000000
  -V(xc)+E(xc)   XCENC  =      -702.17691594
  PAW double counting   =      2504.01617717    -1681.20004824
  entropy T*S    EENTRO =        -0.00000000
  eigenvalues    EBANDS =      -501.01638499
  atomic energy  EATOM  =      2242.85346269
  Solvation  Ediel_sol  =         0.00000000
  ---------------------------------------------------
  free energy    TOTEN  =       -55.51661466 eV

  energy without entropy =      -55.51661466  energy(sigma->0) =      -55.51661466


--------------------------------------------------------------------------------------------------------




--------------------------------------- Iteration      1(   5)  ---------------------------------------


     EDDAV:  cpu time   12.5246: real time   12.6757
       DOS:  cpu time    0.0008: real time    0.0008
    CHARGE:  cpu time    0.6041: real time    0.6468
    MIXING:  cpu time    0.0011: real time    0.0011
    --------------------------------------------
      LOOP:  cpu time   13.1306: real time   13.3245

 eigenvalue-minimisations  :  3840
 total energy-change (2. order) :-0.1006448E-04  (-0.1006335E-04)
 number of electron      60.0000003 magnetization 
 augmentation part      -12.7710214 magnetization 

 DIPCOR: dipole corrections for dipol
 direction  3 min pos     1,
 dipolmoment           0.000000      0.000000      0.000000 electrons x Angstroem
 Tr[quadrupol]      -446.525888

 energy correction for charged system         0.000000 eV
 dipol+quadrupol energy correction           -0.000000 eV
 added-field ion interaction         -0.000000 eV  (added to PSCEN)


 Broyden mixing:
  rms(total) = 0.22598E+01    rms(broyden)= 0.22598E+01
  rms(prec ) = 0.22899E+01
  weight for this iteration     100.00

 Free energy of the ion-electron system (eV)
  ---------------------------------------------------
  alpha Z        PSCENC =        17.47731182
  Ewald energy   TEWEN  =      8437.36301691
  -Hartree energ DENC   =    -10372.83323408
  -exchange      EXHF   =         0.00000000
  -V(xc)+E(xc)   XCENC  =      -702.17691594
  PAW double counting   =      2504.01617717    -1681.20004824
  entropy T*S    EENTRO =        -0.00000000
  eigenvalues    EBANDS =      -501.01639505
  atomic energy  EATOM  =      2242.85346269
  Solvation  Ediel_sol  =         0.00000000
  ---------------------------------------------------
  free energy    TOTEN  =       -55.51662472 eV

  energy without entropy =      -55.51662472  energy(sigma->0) =      -55.51662472


--------------------------------------------------------------------------------------------------------




--------------------------------------- Iteration      1(   6)  ---------------------------------------


    POTLOK:  cpu time    0.0568: real time    0.0600
    SETDIJ:  cpu time    0.0057: real time    0.0061
     EDDAV:  cpu time   30.1371: real time   30.4808
       DOS:  cpu time    0.0009: real time    0.0009
    CHARGE:  cpu time    0.6106: real time    0.6188
    MIXING:  cpu time    0.0013: real time    0.0013
    --------------------------------------------
      LOOP:  cpu time   30.8124: real time   31.1680

 eigenvalue-minimisations  :  7168
 total energy-change (2. order) : 0.3591290E+01  (-0.1617461E+01)
 number of electron      60.0000003 magnetization 
 augmentation part      -12.7766731 magnetization 

 DIPCOR: dipole corrections for dipol
 direction  3 min pos     1,
 dipolmoment           0.000000      0.000000     -0.000000 electrons x Angstroem
 Tr[quadrupol]      -447.495031

 energy correction for charged system         0.000000 eV
 dipol+quadrupol energy correction           -0.000000 eV
 added-field ion interaction          0.000000 eV  (added to PSCEN)


 Broyden mixing:
  rms(total) = 0.15225E+01    rms(broyden)= 0.15225E+01
  rms(prec ) = 0.15258E+01
  weight for this iteration     100.00

 eigenvalues of (default mixing * dielectric matrix)
  average eigenvalue GAMMA=   2.0417
  2.0417

 Free energy of the ion-electron system (eV)
  ---------------------------------------------------
  alpha Z        PSCENC =        17.47731182
  Ewald energy   TEWEN  =      8437.36301691
  -Hartree energ DENC   =    -10416.14733987
  -exchange      EXHF   =         0.00000000
  -V(xc)+E(xc)   XCENC  =      -699.49505305
  PAW double counting   =      3113.10165753    -2291.07379429
  entropy T*S    EENTRO =        -0.00000000
  eigenvalues    EBANDS =      -456.00459600
  atomic energy  EATOM  =      2242.85346269
  Solvation  Ediel_sol  =         0.00000000
  ---------------------------------------------------
  free energy    TOTEN  =       -51.92533427 eV

  energy without entropy =      -51.92533427  energy(sigma->0) =      -51.92533427


--------------------------------------------------------------------------------------------------------




--------------------------------------- Iteration      1(   7)  ---------------------------------------


    POTLOK:  cpu time    0.0566: real time    0.0573
    SETDIJ:  cpu time    0.0061: real time    0.0061
     EDDAV:  cpu time   32.1781: real time   32.4070
       DOS:  cpu time    0.0009: real time    0.0009
    CHARGE:  cpu time    0.6048: real time    0.6148
    MIXING:  cpu time    0.0010: real time    0.0010
    --------------------------------------------
      LOOP:  cpu time   32.8475: real time   33.0871

 eigenvalue-minimisations  :  7424
 total energy-change (2. order) : 0.1042916E+00  (-0.1490447E+00)
 number of electron      60.0000003 magnetization 
 augmentation part      -12.8293494 magnetization 

 DIPCOR: dipole corrections for dipol
 direction  3 min pos     1,
 dipolmoment           0.000000      0.000000     -0.000000 electrons x Angstroem
 Tr[quadrupol]      -448.737343

 energy correction for charged system         0.000000 eV
 dipol+quadrupol energy correction           -0.000000 eV
 added-field ion interaction          0.000000 eV  (added to PSCEN)


 Broyden mixing:
  rms(total) = 0.45901E+00    rms(broyden)= 0.45901E+00
  rms(prec ) = 0.46107E+00
  weight for this iteration     100.00

 eigenvalues of (default mixing * dielectric matrix)
  average eigenvalue GAMMA=   1.8157
  1.1808  2.4507

 Free energy of the ion-electron system (eV)
  ---------------------------------------------------
  alpha Z        PSCENC =        17.47731182
  Ewald energy   TEWEN  =      8437.36301691
  -Hartree energ DENC   =    -10438.79415071
  -exchange      EXHF   =         0.00000000
  -V(xc)+E(xc)   XCENC  =      -698.42934344
  PAW double counting   =      4203.62809031    -3381.64936933
  entropy T*S    EENTRO =        -0.00000000
  eigenvalues    EBANDS =      -434.27006093
  atomic energy  EATOM  =      2242.85346269
  Solvation  Ediel_sol  =         0.00000000
  ---------------------------------------------------
  free energy    TOTEN  =       -51.82104268 eV

  energy without entropy =      -51.82104268  energy(sigma->0) =      -51.82104268


--------------------------------------------------------------------------------------------------------




--------------------------------------- Iteration      1(   8)  ---------------------------------------


    POTLOK:  cpu time    0.0578: real time    0.0586
    SETDIJ:  cpu time    0.0065: real time    0.0066
     EDDAV:  cpu time   27.1958: real time   27.4262
       DOS:  cpu time    0.0009: real time    0.0009
    CHARGE:  cpu time    0.6075: real time    0.6172
    MIXING:  cpu time    0.0014: real time    0.0014
    --------------------------------------------
      LOOP:  cpu time   27.8700: real time   28.1108

 eigenvalue-minimisations  :  6528
 total energy-change (2. order) : 0.2763587E-01  (-0.2621651E-01)
 number of electron      60.0000003 magnetization 
 augmentation part      -12.8495809 magnetization 

 DIPCOR: dipole corrections for dipol
 direction  3 min pos     1,
 dipolmoment           0.000000      0.000000     -0.000000 electrons x Angstroem
 Tr[quadrupol]      -449.340014

 energy correction for charged system         0.000000 eV
 dipol+quadrupol energy correction           -0.000000 eV
 added-field ion interaction          0.000000 eV  (added to PSCEN)


 Broyden mixing:
  rms(total) = 0.92010E-01    rms(broyden)= 0.92010E-01
  rms(prec ) = 0.93834E-01
  weight for this iteration     100.00

 eigenvalues of (default mixing * dielectric matrix)
  average eigenvalue GAMMA=   1.8479
  1.2018  2.6168  1.7251

 Free energy of the ion-electron system (eV)
  ---------------------------------------------------
  alpha Z        PSCENC =        17.47731182
  Ewald energy   TEWEN  =      8437.36301691
  -Hartree energ DENC   =    -10442.08757138
  -exchange      EXHF   =         0.00000000
  -V(xc)+E(xc)   XCENC  =      -698.52188018
  PAW double counting   =      4560.40286201    -3738.24030466
  entropy T*S    EENTRO =        -0.00000000
  eigenvalues    EBANDS =      -431.04030401
  atomic energy  EATOM  =      2242.85346269
  Solvation  Ediel_sol  =         0.00000000
  ---------------------------------------------------
  free energy    TOTEN  =       -51.79340681 eV

  energy without entropy =      -51.79340681  energy(sigma->0) =      -51.79340681


--------------------------------------------------------------------------------------------------------




--------------------------------------- Iteration      1(   9)  ---------------------------------------


    POTLOK:  cpu time    0.0551: real time    0.0560
    SETDIJ:  cpu time    0.0065: real time    0.0066
     EDDAV:  cpu time   31.6485: real time   31.9129
       DOS:  cpu time    0.0009: real time    0.0009
    CHARGE:  cpu time    0.6194: real time    0.6274
    MIXING:  cpu time    0.0015: real time    0.0015
    --------------------------------------------
      LOOP:  cpu time   32.3320: real time   32.6052

 eigenvalue-minimisations  :  7296
 total energy-change (2. order) : 0.3665712E-02  (-0.2567376E-02)
 number of electron      60.0000003 magnetization 
 augmentation part      -12.8477369 magnetization 

 DIPCOR: dipole corrections for dipol
 direction  3 min pos     1,
 dipolmoment           0.000000      0.000000     -0.000000 electrons x Angstroem
 Tr[quadrupol]      -449.791993

 energy correction for charged system         0.000000 eV
 dipol+quadrupol energy correction           -0.000000 eV
 added-field ion interaction          0.000000 eV  (added to PSCEN)


 Broyden mixing:
  rms(total) = 0.34232E-01    rms(broyden)= 0.34232E-01
  rms(prec ) = 0.36300E-01
  weight for this iteration     100.00

 eigenvalues of (default mixing * dielectric matrix)
  average eigenvalue GAMMA=   1.7596
  2.3969  2.3969  1.1222  1.1222

 Free energy of the ion-electron system (eV)
  ---------------------------------------------------
  alpha Z        PSCENC =        17.47731182
  Ewald energy   TEWEN  =      8437.36301691
  -Hartree energ DENC   =    -10448.06630183
  -exchange      EXHF   =         0.00000000
  -V(xc)+E(xc)   XCENC  =      -698.40213214
  PAW double counting   =      4519.87957578    -3697.68511787
  entropy T*S    EENTRO =        -0.00000000
  eigenvalues    EBANDS =      -425.20955645
  atomic energy  EATOM  =      2242.85346269
  Solvation  Ediel_sol  =         0.00000000
  ---------------------------------------------------
  free energy    TOTEN  =       -51.78974110 eV

  energy without entropy =      -51.78974110  energy(sigma->0) =      -51.78974110


--------------------------------------------------------------------------------------------------------




--------------------------------------- Iteration      1(  10)  ---------------------------------------


    POTLOK:  cpu time    0.0576: real time    0.0581
    SETDIJ:  cpu time    0.0063: real time    0.0063
     EDDAV:  cpu time   30.6704: real time   30.8784
       DOS:  cpu time    0.0009: real time    0.0009
    CHARGE:  cpu time    0.6341: real time    0.6421
    MIXING:  cpu time    0.0016: real time    0.0016
    --------------------------------------------
      LOOP:  cpu time   31.3708: real time   31.5874

 eigenvalue-minimisations  :  7168
 total energy-change (2. order) : 0.1122536E-02  (-0.4449896E-03)
 number of electron      60.0000003 magnetization 
 augmentation part      -12.8445034 magnetization 

 DIPCOR: dipole corrections for dipol
 direction  3 min pos     1,
 dipolmoment           0.000000      0.000000     -0.000000 electrons x Angstroem
 Tr[quadrupol]      -450.042532

 energy correction for charged system         0.000000 eV
 dipol+quadrupol energy correction           -0.000000 eV
 added-field ion interaction          0.000000 eV  (added to PSCEN)


 Broyden mixing:
  rms(total) = 0.11638E-01    rms(broyden)= 0.11638E-01
  rms(prec ) = 0.14562E-01
  weight for this iteration     100.00

 eigenvalues of (default mixing * dielectric matrix)
  average eigenvalue GAMMA=   1.7551
  2.5679  2.5679  1.5386  0.9872  1.1140

 Free energy of the ion-electron system (eV)
  ---------------------------------------------------
  alpha Z        PSCENC =        17.47731182
  Ewald energy   TEWEN  =      8437.36301691
  -Hartree energ DENC   =    -10450.27975103
  -exchange      EXHF   =         0.00000000
  -V(xc)+E(xc)   XCENC  =      -698.42616411
  PAW double counting   =      4464.17067141    -3641.95678180
  entropy T*S    EENTRO =        -0.00000000
  eigenvalues    EBANDS =      -422.99038445
  atomic energy  EATOM  =      2242.85346269
  Solvation  Ediel_sol  =         0.00000000
  ---------------------------------------------------
  free energy    TOTEN  =       -51.78861857 eV

  energy without entropy =      -51.78861857  energy(sigma->0) =      -51.78861857


--------------------------------------------------------------------------------------------------------




--------------------------------------- Iteration      1(  11)  ---------------------------------------


    POTLOK:  cpu time    0.0586: real time    0.0591
    SETDIJ:  cpu time    0.0120: real time    0.0121
     EDDAV:  cpu time   32.2202: real time   32.4845
       DOS:  cpu time    0.0009: real time    0.0009
    CHARGE:  cpu time    0.6080: real time    0.6166
    MIXING:  cpu time    0.0015: real time    0.0015
    --------------------------------------------
      LOOP:  cpu time   32.9012: real time   33.1746

 eigenvalue-minimisations  :  7424
 total energy-change (2. order) : 0.6863190E-03  (-0.9732018E-04)
 number of electron      60.0000003 magnetization 
 augmentation part      -12.8427624 magnetization 

 DIPCOR: dipole corrections for dipol
 direction  3 min pos     1,
 dipolmoment           0.000000      0.000000     -0.000000 electrons x Angstroem
 Tr[quadrupol]      -450.297253

 energy correction for charged system         0.000000 eV
 dipol+quadrupol energy correction           -0.000000 eV
 added-field ion interaction          0.000000 eV  (added to PSCEN)


 Broyden mixing:
  rms(total) = 0.71450E-02    rms(broyden)= 0.71450E-02
  rms(prec ) = 0.94328E-02
  weight for this iteration     100.00

 eigenvalues of (default mixing * dielectric matrix)
  average eigenvalue GAMMA=   1.8747
  2.8423  2.8423  2.3960  1.1107  1.1107  0.9461

 Free energy of the ion-electron system (eV)
  ---------------------------------------------------
  alpha Z        PSCENC =        17.47731182
  Ewald energy   TEWEN  =      8437.36301691
  -Hartree energ DENC   =    -10452.96505018
  -exchange      EXHF   =         0.00000000
  -V(xc)+E(xc)   XCENC  =      -698.40288666
  PAW double counting   =      4453.76135304    -3631.54150322
  entropy T*S    EENTRO =        -0.00000000
  eigenvalues    EBANDS =      -420.33363663
  atomic energy  EATOM  =      2242.85346269
  Solvation  Ediel_sol  =         0.00000000
  ---------------------------------------------------
  free energy    TOTEN  =       -51.78793225 eV

  energy without entropy =      -51.78793225  energy(sigma->0) =      -51.78793225


--------------------------------------------------------------------------------------------------------




--------------------------------------- Iteration      1(  12)  ---------------------------------------


    POTLOK:  cpu time    0.0570: real time    0.0587
    SETDIJ:  cpu time    0.0065: real time    0.0065
     EDDAV:  cpu time   26.9907: real time   27.1686
       DOS:  cpu time    0.0009: real time    0.0009
    CHARGE:  cpu time    0.6059: real time    0.6139
    MIXING:  cpu time    0.0019: real time    0.0019
    --------------------------------------------
      LOOP:  cpu time   27.6629: real time   27.8505

 eigenvalue-minimisations  :  6528
 total energy-change (2. order) :-0.8674769E-04  (-0.6963815E-04)
 number of electron      60.0000003 magnetization 
 augmentation part      -12.8412508 magnetization 

 DIPCOR: dipole corrections for dipol
 direction  3 min pos     1,
 dipolmoment           0.000000      0.000000     -0.000000 electrons x Angstroem
 Tr[quadrupol]      -450.582375

 energy correction for charged system         0.000000 eV
 dipol+quadrupol energy correction           -0.000000 eV
 added-field ion interaction          0.000000 eV  (added to PSCEN)


 Broyden mixing:
  rms(total) = 0.33049E-02    rms(broyden)= 0.33049E-02
  rms(prec ) = 0.48724E-02
  weight for this iteration     100.00

 eigenvalues of (default mixing * dielectric matrix)
  average eigenvalue GAMMA=   1.8169
  2.8963  2.8963  2.4444  1.4124  1.0390  1.0390  0.9907

 Free energy of the ion-electron system (eV)
  ---------------------------------------------------
  alpha Z        PSCENC =        17.47731182
  Ewald energy   TEWEN  =      8437.36301691
  -Hartree energ DENC   =    -10455.89085380
  -exchange      EXHF   =         0.00000000
  -V(xc)+E(xc)   XCENC  =      -698.37871883
  PAW double counting   =      4447.85269023    -3625.63607578
  entropy T*S    EENTRO =        -0.00000000
  eigenvalues    EBANDS =      -417.42885224
  atomic energy  EATOM  =      2242.85346269
  Solvation  Ediel_sol  =         0.00000000
  ---------------------------------------------------
  free energy    TOTEN  =       -51.78801899 eV

  energy without entropy =      -51.78801899  energy(sigma->0) =      -51.78801899


--------------------------------------------------------------------------------------------------------




--------------------------------------- Iteration      1(  13)  ---------------------------------------


    POTLOK:  cpu time    0.0562: real time    0.0579
    SETDIJ:  cpu time    0.0061: real time    0.0061
     EDDAV:  cpu time   28.8632: real time   29.1532
       DOS:  cpu time    0.0009: real time    0.0009
    CHARGE:  cpu time    0.6107: real time    0.6194
    MIXING:  cpu time    0.0013: real time    0.0013
    --------------------------------------------
      LOOP:  cpu time   29.5383: real time   29.8388

 eigenvalue-minimisations  :  6912
 total energy-change (2. order) :-0.3528423E-03  (-0.1401849E-04)
 number of electron      60.0000003 magnetization 
 augmentation part      -12.8406004 magnetization 

 DIPCOR: dipole corrections for dipol
 direction  3 min pos     1,
 dipolmoment           0.000000      0.000000     -0.000000 electrons x Angstroem
 Tr[quadrupol]      -450.721762

 energy correction for charged system         0.000000 eV
 dipol+quadrupol energy correction           -0.000000 eV
 added-field ion interaction          0.000000 eV  (added to PSCEN)


 Broyden mixing:
  rms(total) = 0.20023E-02    rms(broyden)= 0.20023E-02
  rms(prec ) = 0.31388E-02
  weight for this iteration     100.00

 eigenvalues of (default mixing * dielectric matrix)
  average eigenvalue GAMMA=   2.0182
  4.0297  3.2192  2.4435  2.2565  1.0006  1.0006  1.0979  1.0979

 Free energy of the ion-electron system (eV)
  ---------------------------------------------------
  alpha Z        PSCENC =        17.47731182
  Ewald energy   TEWEN  =      8437.36301691
  -Hartree energ DENC   =    -10457.29480920
  -exchange      EXHF   =         0.00000000
  -V(xc)+E(xc)   XCENC  =      -698.37001887
  PAW double counting   =      4445.82562651    -3623.60648366
  entropy T*S    EENTRO =        -0.00000000
  eigenvalues    EBANDS =      -416.03647803
  atomic energy  EATOM  =      2242.85346269
  Solvation  Ediel_sol  =         0.00000000
  ---------------------------------------------------
  free energy    TOTEN  =       -51.78837184 eV

  energy without entropy =      -51.78837184  energy(sigma->0) =      -51.78837184


--------------------------------------------------------------------------------------------------------




--------------------------------------- Iteration      1(  14)  ---------------------------------------


    POTLOK:  cpu time    0.0560: real time    0.0577
    SETDIJ:  cpu time    0.0064: real time    0.0065
     EDDAV:  cpu time   20.8276: real time   20.9948
       DOS:  cpu time    0.0009: real time    0.0009
    CHARGE:  cpu time    0.6037: real time    0.6163
    MIXING:  cpu time    0.0017: real time    0.0016
    --------------------------------------------
      LOOP:  cpu time   21.4962: real time   21.6778

 eigenvalue-minimisations  :  5632
 total energy-change (2. order) :-0.9958490E-03  (-0.2249351E-04)
 number of electron      60.0000003 magnetization 
 augmentation part      -12.8399322 magnetization 

 DIPCOR: dipole corrections for dipol
 direction  3 min pos     1,
 dipolmoment           0.000000      0.000000     -0.000000 electrons x Angstroem
 Tr[quadrupol]      -450.924009

 energy correction for charged system         0.000000 eV
 dipol+quadrupol energy correction           -0.000000 eV
 added-field ion interaction          0.000000 eV  (added to PSCEN)


 Broyden mixing:
  rms(total) = 0.13830E-02    rms(broyden)= 0.13830E-02
  rms(prec ) = 0.16318E-02
  weight for this iteration     100.00

 eigenvalues of (default mixing * dielectric matrix)
  average eigenvalue GAMMA=   2.0531
  5.6709  2.6004  2.6004  2.2417  1.3148  1.0989  1.0989  0.9464  0.9056

 Free energy of the ion-electron system (eV)
  ---------------------------------------------------
  alpha Z        PSCENC =        17.47731182
  Ewald energy   TEWEN  =      8437.36301691
  -Hartree energ DENC   =    -10459.31343806
  -exchange      EXHF   =         0.00000000
  -V(xc)+E(xc)   XCENC  =      -698.35829779
  PAW double counting   =      4447.84965362    -3625.63164113
  entropy T*S    EENTRO =        -0.00000000
  eigenvalues    EBANDS =      -414.02943574
  atomic energy  EATOM  =      2242.85346269
  Solvation  Ediel_sol  =         0.00000000
  ---------------------------------------------------
  free energy    TOTEN  =       -51.78936769 eV

  energy without entropy =      -51.78936769  energy(sigma->0) =      -51.78936769


--------------------------------------------------------------------------------------------------------




--------------------------------------- Iteration      1(  15)  ---------------------------------------


    POTLOK:  cpu time    0.0573: real time    0.0589
    SETDIJ:  cpu time    0.0062: real time    0.0062
     EDDAV:  cpu time   21.2876: real time   21.4852
       DOS:  cpu time    0.0009: real time    0.0008
    CHARGE:  cpu time    0.6276: real time    0.6391
    MIXING:  cpu time    0.0013: real time    0.0013
    --------------------------------------------
      LOOP:  cpu time   21.9808: real time   22.1915

 eigenvalue-minimisations  :  5632
 total energy-change (2. order) :-0.1508641E-03  (-0.1770670E-05)
 number of electron      60.0000003 magnetization 
 augmentation part      -12.8396987 magnetization 

 DIPCOR: dipole corrections for dipol
 direction  3 min pos     1,
 dipolmoment           0.000000      0.000000     -0.000000 electrons x Angstroem
 Tr[quadrupol]      -450.964893

 energy correction for charged system         0.000000 eV
 dipol+quadrupol energy correction           -0.000000 eV
 added-field ion interaction          0.000000 eV  (added to PSCEN)


 Broyden mixing:
  rms(total) = 0.62150E-03    rms(broyden)= 0.62150E-03
  rms(prec ) = 0.90514E-03
  weight for this iteration     100.00

 eigenvalues of (default mixing * dielectric matrix)
  average eigenvalue GAMMA=   2.1564
  6.2754  3.2194  2.4375  2.0789  2.0789  1.4142  1.0506  1.0506  0.9795  0.9795

 Free energy of the ion-electron system (eV)
  ---------------------------------------------------
  alpha Z        PSCENC =        17.47731182
  Ewald energy   TEWEN  =      8437.36301691
  -Hartree energ DENC   =    -10459.73151590
  -exchange      EXHF   =         0.00000000
  -V(xc)+E(xc)   XCENC  =      -698.35613632
  PAW double counting   =      4446.31365171    -3624.09504783
  entropy T*S    EENTRO =        -0.00000000
  eigenvalues    EBANDS =      -413.61426162
  atomic energy  EATOM  =      2242.85346269
  Solvation  Ediel_sol  =         0.00000000
  ---------------------------------------------------
  free energy    TOTEN  =       -51.78951855 eV

  energy without entropy =      -51.78951855  energy(sigma->0) =      -51.78951855


--------------------------------------------------------------------------------------------------------




--------------------------------------- Iteration      1(  16)  ---------------------------------------


    POTLOK:  cpu time    0.0604: real time    0.0611
    SETDIJ:  cpu time    0.0062: real time    0.0062
     EDDAV:  cpu time   21.4922: real time   21.6523
       DOS:  cpu time    0.0009: real time    0.0009
    CHARGE:  cpu time    2.8293: real time    2.8470
    MIXING:  cpu time    0.0015: real time    0.0015
    --------------------------------------------
      LOOP:  cpu time   24.3904: real time   24.5690

 eigenvalue-minimisations  :  5760
 total energy-change (2. order) :-0.4148569E-03  (-0.1185763E-05)
 number of electron      60.0000003 magnetization 
 augmentation part      -12.8396844 magnetization 

 DIPCOR: dipole corrections for dipol
 direction  3 min pos     1,
 dipolmoment           0.000000      0.000000     -0.000000 electrons x Angstroem
 Tr[quadrupol]      -450.997951

 energy correction for charged system         0.000000 eV
 dipol+quadrupol energy correction           -0.000000 eV
 added-field ion interaction          0.000000 eV  (added to PSCEN)


 Broyden mixing:
  rms(total) = 0.57002E-03    rms(broyden)= 0.57002E-03
  rms(prec ) = 0.63640E-03
  weight for this iteration     100.00

 eigenvalues of (default mixing * dielectric matrix)
  average eigenvalue GAMMA=   2.1912
  6.8499  3.6128  2.5556  2.5556  2.2089  1.3457  1.1111  1.1111  0.9237  0.9237
  0.9054

 Free energy of the ion-electron system (eV)
  ---------------------------------------------------
  alpha Z        PSCENC =        17.47731182
  Ewald energy   TEWEN  =      8437.36301691
  -Hartree energ DENC   =    -10460.02864449
  -exchange      EXHF   =         0.00000000
  -V(xc)+E(xc)   XCENC  =      -698.35709446
  PAW double counting   =      4447.39099714    -3625.17253871
  entropy T*S    EENTRO =        -0.00000000
  eigenvalues    EBANDS =      -413.31644430
  atomic energy  EATOM  =      2242.85346269
  Solvation  Ediel_sol  =         0.00000000
  ---------------------------------------------------
  free energy    TOTEN  =       -51.78993341 eV

  energy without entropy =      -51.78993341  energy(sigma->0) =      -51.78993341


--------------------------------------------------------------------------------------------------------




--------------------------------------- Iteration      1(  17)  ---------------------------------------


    POTLOK:  cpu time    0.0590: real time    0.0600
    SETDIJ:  cpu time    0.0075: real time    0.0076
     EDDAV:  cpu time   32.8233: real time   33.0360
       DOS:  cpu time    0.0009: real time    0.0009
    CHARGE:  cpu time    0.6181: real time    0.6261
    MIXING:  cpu time    0.0016: real time    0.0016
    --------------------------------------------
      LOOP:  cpu time   33.5104: real time   33.7322

 eigenvalue-minimisations  :  6912
 total energy-change (2. order) :-0.1218545E-03  (-0.2564893E-06)
 number of electron      60.0000003 magnetization 
 augmentation part      -12.8396707 magnetization 

 DIPCOR: dipole corrections for dipol
 direction  3 min pos     1,
 dipolmoment           0.000000      0.000000     -0.000000 electrons x Angstroem
 Tr[quadrupol]      -451.006190

 energy correction for charged system         0.000000 eV
 dipol+quadrupol energy correction           -0.000000 eV
 added-field ion interaction          0.000000 eV  (added to PSCEN)


 Broyden mixing:
  rms(total) = 0.25499E-03    rms(broyden)= 0.25499E-03
  rms(prec ) = 0.30547E-03
  weight for this iteration     100.00

 eigenvalues of (default mixing * dielectric matrix)
  average eigenvalue GAMMA=   2.3098
  7.7423  4.2479  2.7384  2.3301  2.3301  1.7089  1.5541  1.0722  1.0722  1.0052
  1.0052  0.9115

 Free energy of the ion-electron system (eV)
  ---------------------------------------------------
  alpha Z        PSCENC =        17.47731182
  Ewald energy   TEWEN  =      8437.36301691
  -Hartree energ DENC   =    -10460.09658483
  -exchange      EXHF   =         0.00000000
  -V(xc)+E(xc)   XCENC  =      -698.35757170
  PAW double counting   =      4446.84568231    -3624.62690049
  entropy T*S    EENTRO =        -0.00000000
  eigenvalues    EBANDS =      -413.24847196
  atomic energy  EATOM  =      2242.85346269
  Solvation  Ediel_sol  =         0.00000000
  ---------------------------------------------------
  free energy    TOTEN  =       -51.79005526 eV

  energy without entropy =      -51.79005526  energy(sigma->0) =      -51.79005526


--------------------------------------------------------------------------------------------------------




--------------------------------------- Iteration      1(  18)  ---------------------------------------


    POTLOK:  cpu time    0.0574: real time    0.0578
    SETDIJ:  cpu time    0.0062: real time    0.0062
     EDDAV:  cpu time   26.2678: real time   26.4430
       DOS:  cpu time    0.0009: real time    0.0009
    CHARGE:  cpu time    0.6132: real time    0.6247
    MIXING:  cpu time    0.0022: real time    0.0022
    --------------------------------------------
      LOOP:  cpu time   26.9477: real time   27.1348

 eigenvalue-minimisations  :  6528
 total energy-change (2. order) :-0.8700163E-04  (-0.3753458E-06)
 number of electron      60.0000003 magnetization 
 augmentation part      -12.8396925 magnetization 

 DIPCOR: dipole corrections for dipol
 direction  3 min pos     1,
 dipolmoment           0.000000      0.000000     -0.000000 electrons x Angstroem
 Tr[quadrupol]      -451.015199

 energy correction for charged system         0.000000 eV
 dipol+quadrupol energy correction           -0.000000 eV
 added-field ion interaction          0.000000 eV  (added to PSCEN)


 Broyden mixing:
  rms(total) = 0.16273E-03    rms(broyden)= 0.16273E-03
  rms(prec ) = 0.17683E-03
  weight for this iteration     100.00

 eigenvalues of (default mixing * dielectric matrix)
  average eigenvalue GAMMA=   2.3673
  7.9611  5.1915  2.7406  2.7406  2.2573  2.2573  1.3738  1.2316  1.0600  1.0600
  0.9601  0.9601  0.9804

 Free energy of the ion-electron system (eV)
  ---------------------------------------------------
  alpha Z        PSCENC =        17.47731182
  Ewald energy   TEWEN  =      8437.36301691
  -Hartree energ DENC   =    -10460.16021237
  -exchange      EXHF   =         0.00000000
  -V(xc)+E(xc)   XCENC  =      -698.35751296
  PAW double counting   =      4446.76934257    -3624.55054519
  entropy T*S    EENTRO =        -0.00000000
  eigenvalues    EBANDS =      -413.18500572
  atomic energy  EATOM  =      2242.85346269
  Solvation  Ediel_sol  =         0.00000000
  ---------------------------------------------------
  free energy    TOTEN  =       -51.79014226 eV

  energy without entropy =      -51.79014226  energy(sigma->0) =      -51.79014226


--------------------------------------------------------------------------------------------------------




--------------------------------------- Iteration      1(  19)  ---------------------------------------


    POTLOK:  cpu time    0.0568: real time    0.0585
    SETDIJ:  cpu time    0.0064: real time    0.0064
     EDDAV:  cpu time   21.9599: real time   22.1136
       DOS:  cpu time    0.0009: real time    0.0009
    CHARGE:  cpu time    0.6076: real time    0.6159
    MIXING:  cpu time    0.0027: real time    0.0027
    --------------------------------------------
      LOOP:  cpu time   22.6343: real time   22.7980

 eigenvalue-minimisations  :  5760
 total energy-change (2. order) :-0.3686681E-04  (-0.1930588E-06)
 number of electron      60.0000003 magnetization 
 augmentation part      -12.8397004 magnetization 

 DIPCOR: dipole corrections for dipol
 direction  3 min pos     1,
 dipolmoment           0.000000      0.000000     -0.000000 electrons x Angstroem
 Tr[quadrupol]      -451.018170

 energy correction for charged system         0.000000 eV
 dipol+quadrupol energy correction           -0.000000 eV
 added-field ion interaction          0.000000 eV  (added to PSCEN)


 Broyden mixing:
  rms(total) = 0.65153E-04    rms(broyden)= 0.65153E-04
  rms(prec ) = 0.73590E-04
  weight for this iteration     100.00

 eigenvalues of (default mixing * dielectric matrix)
  average eigenvalue GAMMA=   2.4383
  8.2223  5.7236  3.3469  2.3883  2.3883  2.2930  2.2930  1.4153  1.1048  1.0439
  1.0439  0.9549  0.9549  0.9632

 Free energy of the ion-electron system (eV)
  ---------------------------------------------------
  alpha Z        PSCENC =        17.47731182
  Ewald energy   TEWEN  =      8437.36301691
  -Hartree energ DENC   =    -10460.16597487
  -exchange      EXHF   =         0.00000000
  -V(xc)+E(xc)   XCENC  =      -698.35769982
  PAW double counting   =      4446.59880261    -3624.38004811
  entropy T*S    EENTRO =        -0.00000000
  eigenvalues    EBANDS =      -413.17905035
  atomic energy  EATOM  =      2242.85346269
  Solvation  Ediel_sol  =         0.00000000
  ---------------------------------------------------
  free energy    TOTEN  =       -51.79017913 eV

  energy without entropy =      -51.79017913  energy(sigma->0) =      -51.79017913


--------------------------------------------------------------------------------------------------------




--------------------------------------- Iteration      1(  20)  ---------------------------------------


    POTLOK:  cpu time    0.0561: real time    0.0580
    SETDIJ:  cpu time    0.0066: real time    0.0066
     EDDAV:  cpu time   18.8705: real time   19.0800
       DOS:  cpu time    0.0008: real time    0.0008
    CHARGE:  cpu time    0.6065: real time    0.6165
    MIXING:  cpu time    0.0016: real time    0.0016
    --------------------------------------------
      LOOP:  cpu time   19.5422: real time   19.7636

 eigenvalue-minimisations  :  5120
 total energy-change (2. order) :-0.1325443E-04  (-0.8117007E-07)
 number of electron      60.0000003 magnetization 
 augmentation part      -12.8397030 magnetization 

 DIPCOR: dipole corrections for dipol
 direction  3 min pos     1,
 dipolmoment           0.000000      0.000000     -0.000000 electrons x Angstroem
 Tr[quadrupol]      -451.021364

 energy correction for charged system         0.000000 eV
 dipol+quadrupol energy correction           -0.000000 eV
 added-field ion interaction          0.000000 eV  (added to PSCEN)


 Broyden mixing:
  rms(total) = 0.24270E-04    rms(broyden)= 0.24270E-04
  rms(prec ) = 0.31284E-04
  weight for this iteration     100.00

 eigenvalues of (default mixing * dielectric matrix)
  average eigenvalue GAMMA=   2.4359
  8.2051  6.0107  3.5647  2.9566  2.4315  2.4315  2.0069  1.5465  1.2773  1.1071
  1.0550  1.0550  0.9655  0.9655  0.9599

 Free energy of the ion-electron system (eV)
  ---------------------------------------------------
  alpha Z        PSCENC =        17.47731182
  Ewald energy   TEWEN  =      8437.36301691
  -Hartree energ DENC   =    -10460.17461469
  -exchange      EXHF   =         0.00000000
  -V(xc)+E(xc)   XCENC  =      -698.35766758
  PAW double counting   =      4446.63142759    -3624.41266246
  entropy T*S    EENTRO =        -0.00000000
  eigenvalues    EBANDS =      -413.17046665
  atomic energy  EATOM  =      2242.85346269
  Solvation  Ediel_sol  =         0.00000000
  ---------------------------------------------------
  free energy    TOTEN  =       -51.79019238 eV

  energy without entropy =      -51.79019238  energy(sigma->0) =      -51.79019238


--------------------------------------------------------------------------------------------------------




--------------------------------------- Iteration      1(  21)  ---------------------------------------


    POTLOK:  cpu time    0.0574: real time    0.0579
    SETDIJ:  cpu time    0.0062: real time    0.0063
     EDDAV:  cpu time   26.2799: real time   26.4819
       DOS:  cpu time    0.0009: real time    0.0009
    CHARGE:  cpu time    0.6048: real time    0.6130
    MIXING:  cpu time    0.0017: real time    0.0017
    --------------------------------------------
      LOOP:  cpu time   26.9508: real time   27.1617

 eigenvalue-minimisations  :  6528
 total energy-change (2. order) :-0.3580355E-05  (-0.1455519E-07)
 number of electron      60.0000003 magnetization 
 augmentation part      -12.8397037 magnetization 

 DIPCOR: dipole corrections for dipol
 direction  3 min pos     1,
 dipolmoment           0.000000      0.000000     -0.000000 electrons x Angstroem
 Tr[quadrupol]      -451.023874

 energy correction for charged system         0.000000 eV
 dipol+quadrupol energy correction           -0.000000 eV
 added-field ion interaction          0.000000 eV  (added to PSCEN)


 Broyden mixing:
  rms(total) = 0.24543E-04    rms(broyden)= 0.24543E-04
  rms(prec ) = 0.27724E-04
  weight for this iteration     100.00

 eigenvalues of (default mixing * dielectric matrix)
  average eigenvalue GAMMA=   2.3625
  8.1968  6.0664  3.5539  2.9417  2.4177  2.4177  1.9601  1.9601  1.4104  1.1074
  1.0495  1.0495  0.9717  0.9717  0.9417  0.7840

 Free energy of the ion-electron system (eV)
  ---------------------------------------------------
  alpha Z        PSCENC =        17.47731182
  Ewald energy   TEWEN  =      8437.36301691
  -Hartree energ DENC   =    -10460.18200093
  -exchange      EXHF   =         0.00000000
  -V(xc)+E(xc)   XCENC  =      -698.35763570
  PAW double counting   =      4446.69480534    -3624.47605106
  entropy T*S    EENTRO =        -0.00000000
  eigenvalues    EBANDS =      -413.16310502
  atomic energy  EATOM  =      2242.85346269
  Solvation  Ediel_sol  =         0.00000000
  ---------------------------------------------------
  free energy    TOTEN  =       -51.79019596 eV

  energy without entropy =      -51.79019596  energy(sigma->0) =      -51.79019596


--------------------------------------------------------------------------------------------------------




--------------------------------------- Iteration      1(  22)  ---------------------------------------


    POTLOK:  cpu time    0.0603: real time    0.0620
    SETDIJ:  cpu time    0.0061: real time    0.0062
     EDDAV:  cpu time   25.6693: real time   25.8490
       DOS:  cpu time    0.0009: real time    0.0009
    CHARGE:  cpu time    0.6050: real time    0.6129
    MIXING:  cpu time    0.0018: real time    0.0018
    --------------------------------------------
      LOOP:  cpu time   26.3434: real time   26.5327

 eigenvalue-minimisations  :  6400
 total energy-change (2. order) :-0.1139781E-05  ( 0.2362414E-10)
 number of electron      60.0000003 magnetization 
 augmentation part      -12.8397026 magnetization 

[...]
      4.182266  1.408946 16.798048    -0.000000   -0.394069    0.079830  
      0.000001  1.408946 11.018557    -0.000000    0.394069    0.079830  
      4.182266  5.654327 11.018557     0.000000   -0.394069   -0.079830  
      0.000001  5.654327 16.798048     0.000000    0.394069   -0.079830  
      2.091134  3.437839 13.908302     0.000000    0.000000   -0.225370  
      2.091134  7.683220 13.908302    -0.000000   -0.000000    0.225370  
 
  21 f  =    2.180439 THz    13.700103 2PiTHz   72.731618 cm-1     9.017575 meV
             X         Y         Z           dx          dy          dz
      2.091133  3.302858 16.807457    -0.000000    0.064870    0.054187  
      2.091134  3.302858 11.009148    -0.000000   -0.064870    0.054187  
      2.091133  7.548239 11.009148    -0.000000   -0.064870    0.054187  
      2.091134  7.548239 16.807457    -0.000000    0.064870    0.054187  
      4.182267  5.530582 13.908302    -0.000000   -0.000000   -0.004769  
      4.182267  1.285201 13.908302    -0.000000   -0.000000   -0.004769  
      4.182266  1.408946 16.798048     0.000000    0.019731   -0.248048  
      0.000001  1.408946 11.018557     0.000000   -0.019731   -0.248048  
      4.182266  5.654327 11.018557     0.000000   -0.019731   -0.248048  
      0.000001  5.654327 16.798048     0.000000    0.019731   -0.248048  
      2.091134  3.437839 13.908302     0.000000   -0.000000    0.601543  
      2.091134  7.683220 13.908302     0.000000   -0.000000    0.601543  
 
  22 f  =    2.163040 THz    13.590782 2PiTHz   72.151249 cm-1     8.945618 meV
             X         Y         Z           dx          dy          dz
      2.091133  3.302858 16.807457     0.465368    0.000000    0.000000  
      2.091134  3.302858 11.009148     0.465368   -0.000000    0.000000  
      2.091133  7.548239 11.009148     0.465368   -0.000000    0.000000  
      2.091134  7.548239 16.807457     0.465368    0.000000    0.000000  
      4.182267  5.530582 13.908302     0.099148    0.000000   -0.000000  
      4.182267  1.285201 13.908302     0.099148    0.000000   -0.000000  
      4.182266  1.408946 16.798048    -0.113530    0.000000   -0.000000  
      0.000001  1.408946 11.018557    -0.113530    0.000000   -0.000000  
      4.182266  5.654327 11.018557    -0.113530   -0.000000   -0.000000  
      0.000001  5.654327 16.798048    -0.113530   -0.000000   -0.000000  
      2.091134  3.437839 13.908302    -0.176796    0.000000    0.000000  
      2.091134  7.683220 13.908302    -0.176796   -0.000000    0.000000  
 
  23 f  =    2.067962 THz    12.993390 2PiTHz   68.979793 cm-1     8.552407 meV
             X         Y         Z           dx          dy          dz
      2.091133  3.302858 16.807457     0.000000   -0.033496    0.053890  
      2.091134  3.302858 11.009148     0.000000   -0.033496   -0.053890  
      2.091133  7.548239 11.009148    -0.000000   -0.033496   -0.053890  
      2.091134  7.548239 16.807457     0.000000   -0.033496    0.053890  
      4.182267  5.530582 13.908302     0.000000    0.004166   -0.000000  
      4.182267  1.285201 13.908302     0.000000    0.004166    0.000000  
      4.182266  1.408946 16.798048    -0.000000   -0.012853    0.494496  
      0.000001  1.408946 11.018557    -0.000000   -0.012853   -0.494496  
      4.182266  5.654327 11.018557    -0.000000   -0.012853   -0.494496  
      0.000001  5.654327 16.798048     0.000000   -0.012853    0.494496  
      2.091134  3.437839 13.908302    -0.000000    0.050472    0.000000  
      2.091134  7.683220 13.908302     0.000000    0.050472    0.000000  
 
  24 f  =    1.717021 THz    10.788361 2PiTHz   57.273654 cm-1     7.101031 meV
             X         Y         Z           dx          dy          dz
      2.091133  3.302858 16.807457     0.000108   -0.000000   -0.000000  
      2.091134  3.302858 11.009148     0.000108   -0.000000   -0.000000  
      2.091133  7.548239 11.009148    -0.000108    0.000000    0.000000  
      2.091134  7.548239 16.807457    -0.000108    0.000000   -0.000000  
      4.182267  5.530582 13.908302    -0.023427    0.000000   -0.000000  
      4.182267  1.285201 13.908302     0.023427    0.000000    0.000000  
      4.182266  1.408946 16.798048     0.032992   -0.000000   -0.000000  
      0.000001  1.408946 11.018557     0.032992   -0.000000    0.000000  
      4.182266  5.654327 11.018557    -0.032992    0.000000    0.000000  
      0.000001  5.654327 16.798048    -0.032992    0.000000   -0.000000  
      2.091134  3.437839 13.908302    -0.705177   -0.000000   -0.000000  
      2.091134  7.683220 13.908302     0.705177    0.000000    0.000000  
 
  25 f  =    1.616310 THz    10.155576 2PiTHz   53.914299 cm-1     6.684524 meV
             X         Y         Z           dx          dy          dz
      2.091133  3.302858 16.807457     0.000000    0.032428   -0.009480  
      2.091134  3.302858 11.009148    -0.000000    0.032428    0.009480  
      2.091133  7.548239 11.009148     0.000000   -0.032428   -0.009480  
      2.091134  7.548239 16.807457    -0.000000   -0.032428    0.009480  
      4.182267  5.530582 13.908302    -0.000000    0.007339   -0.000000  
      4.182267  1.285201 13.908302    -0.000000   -0.007339    0.000000  
      4.182266  1.408946 16.798048     0.000000    0.040992   -0.449729  
      0.000001  1.408946 11.018557    -0.000000    0.040992    0.449729  
      4.182266  5.654327 11.018557     0.000000   -0.040992   -0.449729  
      0.000001  5.654327 16.798048    -0.000000   -0.040992    0.449729  
      2.091134  3.437839 13.908302    -0.000000    0.299650   -0.000000  
      2.091134  7.683220 13.908302     0.000000   -0.299650    0.000000  
 
  26 f  =    1.417527 THz     8.906584 2PiTHz   47.283607 cm-1     5.862422 meV
             X         Y         Z           dx          dy          dz
      2.091133  3.302858 16.807457    -0.000000    0.037425   -0.103373  
      2.091134  3.302858 11.009148    -0.000000   -0.037425   -0.103373  
      2.091133  7.548239 11.009148    -0.000000    0.037425    0.103373  
      2.091134  7.548239 16.807457    -0.000000   -0.037425    0.103373  
      4.182267  5.530582 13.908302    -0.000000   -0.000000   -0.044475  
      4.182267  1.285201 13.908302    -0.000000   -0.000000    0.044475  
      4.182266  1.408946 16.798048     0.000000    0.239745    0.103414  
      0.000001  1.408946 11.018557     0.000000   -0.239745    0.103414  
      4.182266  5.654327 11.018557     0.000000    0.239745   -0.103414  
      0.000001  5.654327 16.798048     0.000000   -0.239745   -0.103414  
      2.091134  3.437839 13.908302    -0.000000   -0.000000   -0.580951  
      2.091134  7.683220 13.908302    -0.000000   -0.000000    0.580951  
 
  27 f  =    1.325215 THz     8.326574 2PiTHz   44.204425 cm-1     5.480652 meV
             X         Y         Z           dx          dy          dz
      2.091133  3.302858 16.807457    -0.000000   -0.068546   -0.007054  
      2.091134  3.302858 11.009148     0.000000   -0.068546    0.007054  
      2.091133  7.548239 11.009148    -0.000000   -0.068546    0.007054  
      2.091134  7.548239 16.807457     0.000000   -0.068546   -0.007054  
      4.182267  5.530582 13.908302     0.000000    0.117652    0.000000  
      4.182267  1.285201 13.908302     0.000000    0.117652   -0.000000  
      4.182266  1.408946 16.798048    -0.000000   -0.278356   -0.040403  
      0.000001  1.408946 11.018557     0.000000   -0.278356    0.040403  
      4.182266  5.654327 11.018557    -0.000000   -0.278356    0.040403  
      0.000001  5.654327 16.798048    -0.000000   -0.278356   -0.040403  
      2.091134  3.437839 13.908302     0.000000    0.564299   -0.000000  
      2.091134  7.683220 13.908302     0.000000    0.564299    0.000000  
 
  28 f  =    1.288492 THz     8.095832 2PiTHz   42.979453 cm-1     5.328775 meV
             X         Y         Z           dx          dy          dz
      2.091133  3.302858 16.807457    -0.078833    0.000000   -0.000000  
      2.091134  3.302858 11.009148     0.078833    0.000000   -0.000000  
      2.091133  7.548239 11.009148    -0.078833    0.000000   -0.000000  
      2.091134  7.548239 16.807457     0.078833    0.000000    0.000000  
      4.182267  5.530582 13.908302     0.000000   -0.000000    0.000000  
      4.182267  1.285201 13.908302     0.000000   -0.000000   -0.000000  
      4.182266  1.408946 16.798048    -0.493746    0.000000   -0.000000  
      0.000001  1.408946 11.018557     0.493746    0.000000    0.000000  
      4.182266  5.654327 11.018557    -0.493746    0.000000   -0.000000  
      0.000001  5.654327 16.798048     0.493746    0.000000    0.000000  
      2.091134  3.437839 13.908302     0.000000   -0.000000    0.000000  
      2.091134  7.683220 13.908302     0.000000   -0.000000   -0.000000  
 
  29 f  =    1.243480 THz     7.813013 2PiTHz   41.478012 cm-1     5.142620 meV
             X         Y         Z           dx          dy          dz
      2.091133  3.302858 16.807457    -0.013390   -0.000000    0.000000  
      2.091134  3.302858 11.009148    -0.013390   -0.000000    0.000000  
      2.091133  7.548239 11.009148    -0.013390   -0.000000   -0.000000  
      2.091134  7.548239 16.807457    -0.013390   -0.000000   -0.000000  
      4.182267  5.530582 13.908302    -0.144495    0.000000    0.000000  
      4.182267  1.285201 13.908302    -0.144495    0.000000   -0.000000  
      4.182266  1.408946 16.798048     0.304083   -0.000000   -0.000000  
      0.000001  1.408946 11.018557     0.304083   -0.000000   -0.000000  
      4.182266  5.654327 11.018557     0.304083   -0.000000    0.000000  
      0.000001  5.654327 16.798048     0.304083   -0.000000    0.000000  
      2.091134  3.437839 13.908302    -0.542061    0.000000    0.000000  
      2.091134  7.683220 13.908302    -0.542061    0.000000   -0.000000  
 
  30 f  =    1.159419 THz     7.284842 2PiTHz   38.674041 cm-1     4.794972 meV
             X         Y         Z           dx          dy          dz
      2.091133  3.302858 16.807457     0.082886   -0.000000    0.000000  
      2.091134  3.302858 11.009148     0.082886   -0.000000    0.000000  
      2.091133  7.548239 11.009148    -0.082886   -0.000000   -0.000000  
      2.091134  7.548239 16.807457    -0.082886   -0.000000   -0.000000  
      4.182267  5.530582 13.908302    -0.014779   -0.000000   -0.000000  
      4.182267  1.285201 13.908302     0.014779   -0.000000    0.000000  
      4.182266  1.408946 16.798048     0.491872   -0.000000    0.000000  
      0.000001  1.408946 11.018557     0.491872    0.000000    0.000000  
      4.182266  5.654327 11.018557    -0.491872    0.000000   -0.000000  
      0.000001  5.654327 16.798048    -0.491872   -0.000000   -0.000000  
      2.091134  3.437839 13.908302     0.046541   -0.000000    0.000000  
      2.091134  7.683220 13.908302    -0.046541   -0.000000   -0.000000  
 
  31 f  =    1.134872 THz     7.130609 2PiTHz   37.855246 cm-1     4.693454 meV
             X         Y         Z           dx          dy          dz
      2.091133  3.302858 16.807457     0.000000    0.000921   -0.080014  
      2.091134  3.302858 11.009148     0.000000   -0.000921   -0.080014  
      2.091133  7.548239 11.009148    -0.000000    0.000921    0.080014  
      2.091134  7.548239 16.807457    -0.000000   -0.000921    0.080014  
      4.182267  5.530582 13.908302     0.000000   -0.000000    0.149085  
      4.182267  1.285201 13.908302     0.000000   -0.000000   -0.149085  
      4.182266  1.408946 16.798048     0.000000    0.001125   -0.470452  
      0.000001  1.408946 11.018557     0.000000   -0.001125   -0.470452  
      4.182266  5.654327 11.018557    -0.000000    0.001125    0.470452  
      0.000001  5.654327 16.798048    -0.000000   -0.001125    0.470452  
      2.091134  3.437839 13.908302     0.000000   -0.000000   -0.149380  
      2.091134  7.683220 13.908302     0.000000   -0.000000    0.149380  
 
  32 f  =    0.953303 THz     5.989781 2PiTHz   31.798774 cm-1     3.942547 meV
             X         Y         Z           dx          dy          dz
      2.091133  3.302858 16.807457     0.000000    0.146530   -0.010418  
      2.091134  3.302858 11.009148    -0.000000   -0.146530   -0.010418  
      2.091133  7.548239 11.009148    -0.000000   -0.146530   -0.010418  
      2.091134  7.548239 16.807457     0.000000    0.146530   -0.010418  
      4.182267  5.530582 13.908302     0.000000    0.000000    0.008974  
      4.182267  1.285201 13.908302     0.000000    0.000000    0.008974  
      4.182266  1.408946 16.798048     0.000000    0.475816   -0.002378  
      0.000001  1.408946 11.018557    -0.000000   -0.475816   -0.002378  
      4.182266  5.654327 11.018557    -0.000000   -0.475816   -0.002378  
      0.000001  5.654327 16.798048     0.000000    0.475816   -0.002378  
      2.091134  3.437839 13.908302     0.000000    0.000000   -0.062831  
      2.091134  7.683220 13.908302     0.000000    0.000000   -0.062831  
 
  33 f  =    0.897959 THz     5.642040 2PiTHz   29.952671 cm-1     3.713659 meV
             X         Y         Z           dx          dy          dz
      2.091133  3.302858 16.807457    -0.109966    0.000000    0.000000  
      2.091134  3.302858 11.009148     0.109966   -0.000000   -0.000000  
      2.091133  7.548239 11.009148     0.109966   -0.000000   -0.000000  
      2.091134  7.548239 16.807457    -0.109966    0.000000    0.000000  
      4.182267  5.530582 13.908302    -0.000000   -0.000000   -0.000000  
      4.182267  1.285201 13.908302    -0.000000   -0.000000   -0.000000  
      4.182266  1.408946 16.798048    -0.487757    0.000000    0.000000  
      0.000001  1.408946 11.018557     0.487757   -0.000000   -0.000000  
      4.182266  5.654327 11.018557     0.487757   -0.000000    0.000000  
      0.000001  5.654327 16.798048    -0.487757    0.000000    0.000000  
      2.091134  3.437839 13.908302    -0.000000   -0.000000   -0.000000  
      2.091134  7.683220 13.908302    -0.000000   -0.000000   -0.000000  
 
  34 f/i=    0.000554 THz     0.003480 2PiTHz    0.018475 cm-1     0.002291 meV
             X         Y         Z           dx          dy          dz
      2.091133  3.302858 16.807457    -0.000000   -0.149493    0.000007  
      2.091134  3.302858 11.009148    -0.000000   -0.149493   -0.000007  
      2.091133  7.548239 11.009148    -0.000000   -0.149493   -0.000007  
      2.091134  7.548239 16.807457    -0.000000   -0.149493    0.000007  
      4.182267  5.530582 13.908302    -0.000000   -0.149541    0.000000  
      4.182267  1.285201 13.908302    -0.000000   -0.149541   -0.000000  
      4.182266  1.408946 16.798048    -0.000000   -0.379877    0.000017  
      0.000001  1.408946 11.018557    -0.000000   -0.379877   -0.000017  
      4.182266  5.654327 11.018557    -0.000000   -0.379877   -0.000017  
      0.000001  5.654327 16.798048    -0.000000   -0.379877    0.000017  
      2.091134  3.437839 13.908302    -0.000000   -0.379906    0.000000  
      2.091134  7.683220 13.908302    -0.000000   -0.379906   -0.000000  
 
  35 f/i=    0.002840 THz     0.017846 2PiTHz    0.094742 cm-1     0.011746 meV
             X         Y         Z           dx          dy          dz
      2.091133  3.302858 16.807457    -0.149021    0.000000    0.000000  
      2.091134  3.302858 11.009148    -0.149021    0.000000    0.000000  
      2.091133  7.548239 11.009148    -0.149021    0.000000   -0.000000  
      2.091134  7.548239 16.807457    -0.149021    0.000000   -0.000000  
      4.182267  5.530582 13.908302    -0.148981    0.000000   -0.000000  
      4.182267  1.285201 13.908302    -0.148981    0.000000    0.000000  
      4.182266  1.408946 16.798048    -0.380315    0.000000   -0.000000  
      0.000001  1.408946 11.018557    -0.380315    0.000000    0.000000  
      4.182266  5.654327 11.018557    -0.380315    0.000000    0.000000  
      0.000001  5.654327 16.798048    -0.380315    0.000000   -0.000000  
      2.091134  3.437839 13.908302    -0.379620    0.000000    0.000000  
      2.091134  7.683220 13.908302    -0.379620    0.000000   -0.000000  
 
  36 f/i=    2.188772 THz    13.752459 2PiTHz   73.009569 cm-1     9.052036 meV
             X         Y         Z           dx          dy          dz
      2.091133  3.302858 16.807457    -0.000000   -0.003170   -0.029822  
      2.091134  3.302858 11.009148     0.000000    0.003170   -0.029822  
      2.091133  7.548239 11.009148    -0.000000    0.003170   -0.029822  
      2.091134  7.548239 16.807457     0.000000   -0.003170   -0.029822  
      4.182267  5.530582 13.908302     0.000000    0.000000   -0.128198  
      4.182267  1.285201 13.908302    -0.000000   -0.000000   -0.128198  
      4.182266  1.408946 16.798048     0.000000   -0.023330   -0.425503  
      0.000001  1.408946 11.018557    -0.000000    0.023330   -0.425503  
      4.182266  5.654327 11.018557     0.000000    0.023330   -0.425503  
      0.000001  5.654327 16.798048    -0.000000   -0.023330   -0.425503  
      2.091134  3.437839 13.908302     0.000000    0.000000   -0.344344  
      2.091134  7.683220 13.908302    -0.000000   -0.000000   -0.344344  
 


--------------------------------------------------------------------------------------------------------




 MACROSCOPIC STATIC DIELECTRIC TENSOR IONIC CONTRIBUTION
 ------------------------------------------------------
          44.863367    -0.001567     0.000000
          -0.001567    15.813423    -0.000137
           0.000000    -0.000137     0.008976
 ------------------------------------------------------


 ELASTIC MODULI IONIC CONTR (kBar)
 Direction    XX          YY          ZZ          XY          YZ          ZX
 --------------------------------------------------------------------------------
 XX         -52.8488    -84.2468    -45.0213     -0.0000      0.0000     -0.0000
 YY         -84.2468   -140.0522    -44.9205     -0.0000      0.0000     -0.0000
 ZZ         -45.0213    -44.9205   -318.2340      0.0000      0.0000      0.0000
 XY          -0.0000     -0.0000      0.0000   -107.0543     -0.0000     -0.0000
 YZ           0.0000      0.0000      0.0000     -0.0000    -53.9867      0.0000
 ZX          -0.0000     -0.0000      0.0000     -0.0000      0.0000    -54.1505
 --------------------------------------------------------------------------------


 PIEZOELECTRIC TENSOR IONIC CONTR  for field in x, y, z        (C/m^2)
          XX          YY          ZZ          XY          YZ          ZX
  --------------------------------------------------------------------------------
  x    -0.00008    -0.00015     0.00003     2.00405    -0.00000     0.00000
  y     0.67359     1.20641    -0.03989     0.00000     0.00000     0.00000
  z    -0.00001    -0.00001    -0.00001     0.00000    -0.00442    -0.00000


--------------------------------------------------------------------------------------------------------


 writing wavefunctions
     LOOP+:  cpu time 5125.7260: real time 5194.5463
    4ORBIT:  cpu time    0.0000: real time    0.0000

 total amount of memory used by VASP MPI-rank0   177824. kBytes
=======================================================================

   base      :      30000. kBytes
   nonl-proj :     109375. kBytes
   fftplans  :       4253. kBytes
   grid      :      26143. kBytes
   one-center:         97. kBytes
   wavefun   :       7956. kBytes
 
  
  
 General timing and accounting informations for this job:
 ========================================================
  
                  Total CPU time used (sec):     5142.608
                            User time (sec):     5094.199
                          System time (sec):       48.409
                         Elapsed time (sec):     5214.771
  
                   Maximum memory used (kb):      781340.
                   Average memory used (kb):           0.
  
                          Minor page faults:      2205818
                          Major page faults:          778
                 Voluntary context switches:        17633
