 vasp.5.4.4.18Apr17-6-g9f103f2a35 (build Sep 16 2021 13:51:27) complex          
  
 executed on             LinuxIFC date 2023.03.16  12:57:38
 running on   24 total cores
 distrk:  each k-point on   24 cores,    1 groups
 distr:  one band on NCORES_PER_BAND=  24 cores,    1 groups


--------------------------------------------------------------------------------------------------------


 INCAR:
 POTCAR:    PAW_PBE Sn 08Apr2002                  
 POTCAR:    PAW_PBE Se 06Sep2000                  

 ----------------------------------------------------------------------------- 
|                                                                             |
|           W    W    AA    RRRRR   N    N  II  N    N   GGGG   !!!           |
|           W    W   A  A   R    R  NN   N  II  NN   N  G    G  !!!           |
|           W    W  A    A  R    R  N N  N  II  N N  N  G       !!!           |
|           W WW W  AAAAAA  RRRRR   N  N N  II  N  N N  G  GGG   !            |
|           WW  WW  A    A  R   R   N   NN  II  N   NN  G    G                |
|           W    W  A    A  R    R  N    N  II  N    N   GGGG   !!!           |
|                                                                             |
|      For optimal performance we recommend to set                            |
|        NCORE= 4 - approx SQRT( number of cores)                             |
|      NCORE specifies how many cores store one orbital (NPAR=cpu/NCORE).     |
|      This setting can  greatly improve the performance of VASP for DFT.     |
|      The default,   NCORE=1            might be grossly inefficient         |
|      on modern multi-core architectures or massively parallel machines.     |
|      Do your own testing !!!!                                               |
|      Unfortunately you need to use the default for GW and RPA calculations. |
|      (for HF NCORE is supported but not extensively tested yet)             |
|                                                                             |
 ----------------------------------------------------------------------------- 

 POTCAR:    PAW_PBE Sn 08Apr2002                  
   VRHFIN =Sn: s2p2                                                             
   LEXCH  = PE                                                                  
   EATOM  =    94.0860 eV,    6.9151 Ry                                         
                                                                                
   TITEL  = PAW_PBE Sn 08Apr2002                                                
   LULTRA =        F    use ultrasoft PP ?                                      
   IUNSCR =        1    unscreen: 0-lin 1-nonlin 2-no                           
   RPACOR =    2.000    partial core radius                                     
   POMASS =  118.710; ZVAL   =    4.000    mass and valenz                      
   RCORE  =    3.000    outmost cutoff radius                                   
   RWIGS  =    2.960; RWIGS  =    1.566    wigner-seitz radius (au A)           
   ENMAX  =  103.236; ENMIN  =   77.427 eV                                      
   ICORE  =        3    local potential                                         
   LCOR   =        T    correct aug charges                                     
   LPAW   =        T    paw PP                                                  
   EAUG   =  263.585                                                            
   DEXC   =    0.000                                                            
   RMAX   =    3.078    core radius for proj-oper                               
   RAUG   =    1.300    factor for augmentation sphere                          
   RDEP   =    3.022    radius for radial grids                                 
   RDEPT  =    2.655    core radius for aug-charge                              
                                                                                
   Atomic configuration                                                         
   13 entries                                                                   
     n  l   j            E        occ.                                          
     1  0  0.50    -29007.2859   2.0000                                         
     2  0  0.50     -4378.8056   2.0000                                         
     2  1  1.50     -3930.4293   6.0000                                         
     3  0  0.50      -845.0264   2.0000                                         
     3  1  1.50      -698.5725   6.0000                                         
     3  2  2.50      -473.2839  10.0000                                         
     4  0  0.50      -133.9036   2.0000                                         
     4  1  1.50       -89.6752   6.0000                                         
     4  2  2.50       -25.8375  10.0000                                         
     5  0  0.50       -10.5484   2.0000                                         
     5  1  0.50        -3.6940   2.0000                                         
     5  2  1.50        -1.3606   0.0000                                         
     4  3  2.50        -4.0817   0.0000                                         
   Description                                                                  
     l       E           TYP  RCUT    TYP  RCUT                                 
     0    -10.5483727     23  3.000                                             
     0     27.2116520     23  3.000                                             
     1     -3.6939829     23  3.000                                             
     1      1.9821976     23  3.000                                             
     2     -1.3605826     23  3.000                                             
     3     -2.7211652     23  3.000                                             
  local pseudopotential read in
  partial core-charges read in
  partial kinetic energy density read in
  atomic valenz-charges read in
  non local Contribution for L=           0  read in
    real space projection operators read in
  non local Contribution for L=           0  read in
    real space projection operators read in
  non local Contribution for L=           1  read in
    real space projection operators read in
  non local Contribution for L=           1  read in
    real space projection operators read in
  non local Contribution for L=           2  read in
    real space projection operators read in
    PAW grid and wavefunctions read in
 
   number of l-projection  operators is LMAX  =           5
   number of lm-projection operators is LMMAX =          13
 
 POTCAR:    PAW_PBE Se 06Sep2000                  
   VRHFIN =Se: s2p4                                                             
   LEXCH  = PE                                                                  
   EATOM  =   257.1286 eV,   18.8984 Ry                                         
                                                                                
   TITEL  = PAW_PBE Se 06Sep2000                                                
   LULTRA =        F    use ultrasoft PP ?                                      
   IUNSCR =        1    unscreen: 0-lin 1-nonlin 2-no                           
   RPACOR =    1.900    partial core radius                                     
   POMASS =   78.960; ZVAL   =    6.000    mass and valenz                      
   RCORE  =    2.100    outmost cutoff radius                                   
   RWIGS  =    2.200; RWIGS  =    1.164    wigner-seitz radius (au A)           
   ENMAX  =  211.555; ENMIN  =  158.666 eV                                      
   ICORE  =        3    local potential                                         
   LCOR   =        T    correct aug charges                                     
   LPAW   =        T    paw PP                                                  
   EAUG   =  446.842                                                            
   DEXC   =    0.000                                                            
   RMAX   =    2.147    core radius for proj-oper                               
   RAUG   =    1.300    factor for augmentation sphere                          
   RDEP   =    2.177    radius for radial grids                                 
   RDEPT  =    1.928    core radius for aug-charge                              
                                                                                
   Atomic configuration                                                         
   10 entries                                                                   
     n  l   j            E        occ.                                          
     1  0  0.50    -12503.4787   2.0000                                         
     2  0  0.50     -1606.9547   2.0000                                         
     2  1  1.50     -1413.3140   6.0000                                         
     3  0  0.50      -213.4885   2.0000                                         
     3  1  1.50      -152.9538   6.0000                                         
     3  2  2.50       -53.1221  10.0000                                         
     4  0  0.50       -17.2865   2.0000                                         
     4  1  0.50        -6.5110   4.0000                                         
     4  2  2.50        -6.8029   0.0000                                         
     4  3  2.50        -6.8029   0.0000                                         
   Description                                                                  
     l       E           TYP  RCUT    TYP  RCUT                                 
     0    -17.2865377     23  2.100                                             
     0    -15.3094411     23  2.100                                             
     1     -6.5110275     23  2.100                                             
     1     -0.0695192     23  2.100                                             
     2     -6.8029130     23  2.100                                             
     3     -1.3605826      7  2.100                                             
  local pseudopotential read in
  partial core-charges read in
  partial kinetic energy density read in
  atomic valenz-charges read in
  non local Contribution for L=           0  read in
    real space projection operators read in
  non local Contribution for L=           0  read in
    real space projection operators read in
  non local Contribution for L=           1  read in
    real space projection operators read in
  non local Contribution for L=           1  read in
    real space projection operators read in
  non local Contribution for L=           2  read in
    real space projection operators read in
    PAW grid and wavefunctions read in
 
   number of l-projection  operators is LMAX  =           5
   number of lm-projection operators is LMMAX =          13
 
 WARNING: PSMAXN for non-local potential too small
          PSMAXN should be >   12.5490833729506       NTYP=           1
  PAW_PBE Sn 08Apr2002                  :
 energy of atom  1       EATOM=  -94.0860
 kinetic energy error for atom=    0.0000 (will be added to EATOM!!)
  PAW_PBE Se 06Sep2000                  :
 energy of atom  2       EATOM= -257.1286
 kinetic energy error for atom=    0.0006 (will be added to EATOM!!)
 
 
 POSCAR:  POSCAR with strain of 0.010            
  positions in direct lattice
  No initial velocities read in
 exchange correlation table for  LEXCH =        8
   RHO(1)=    0.500       N(1)  =     2000
   RHO(2)=  100.500       N(2)  =     4000
 


--------------------------------------------------------------------------------------------------------


 ion  position               nearest neighbor table
   1  0.581  0.750  0.569-   4 2.72   3 2.94   3 2.94   3 3.24   3 3.24
   2  0.081  0.250  0.431-   3 2.72   4 2.94   4 2.94   4 3.24   4 3.24
   3  0.033  0.250  0.567-   2 2.72   1 2.94   1 2.94   1 3.24   1 3.24
   4  0.533  0.750  0.433-   1 2.72   2 2.94   2 2.94   2 3.24   2 3.24
 

IMPORTANT INFORMATION: All symmetrisations will be switched off!
NOSYMM: (Re-)initialisation of all symmetry stuff for point group C_1.

 
 
 KPOINTS: KMesh Grid                              

Automatic generation of k-mesh.
Space group operators:
 irot       det(A)        alpha          n_x          n_y          n_z        tau_x        tau_y        tau_z
    1     1.000000     0.000001     1.000000     0.000000     0.000000     0.000000     0.000000     0.000000
 
 Subroutine IBZKPT returns following result:
 ===========================================
 
 Found    113 irreducible k-points:
 
 Following reciprocal coordinates:
            Coordinates               Weight
  0.000000  0.000000  0.000000      1.000000
  0.066667  0.000000  0.000000      2.000000
  0.133333  0.000000  0.000000      2.000000
  0.200000  0.000000  0.000000      2.000000
  0.266667  0.000000  0.000000      2.000000
  0.333333  0.000000  0.000000      2.000000
  0.400000  0.000000  0.000000      2.000000
  0.466667  0.000000  0.000000      2.000000
  0.000000  0.066667  0.000000      2.000000
  0.066667  0.066667  0.000000      2.000000
  0.133333  0.066667  0.000000      2.000000
  0.200000  0.066667  0.000000      2.000000
  0.266667  0.066667  0.000000      2.000000
  0.333333  0.066667  0.000000      2.000000
  0.400000  0.066667  0.000000      2.000000
  0.466667  0.066667  0.000000      2.000000
 -0.466667  0.066667  0.000000      2.000000
 -0.400000  0.066667  0.000000      2.000000
 -0.333333  0.066667  0.000000      2.000000
 -0.266667  0.066667  0.000000      2.000000
 -0.200000  0.066667  0.000000      2.000000
 -0.133333  0.066667  0.000000      2.000000
 -0.066667  0.066667  0.000000      2.000000
  0.000000  0.133333  0.000000      2.000000
  0.066667  0.133333  0.000000      2.000000
  0.133333  0.133333  0.000000      2.000000
  0.200000  0.133333  0.000000      2.000000
  0.266667  0.133333  0.000000      2.000000
  0.333333  0.133333  0.000000      2.000000
  0.400000  0.133333  0.000000      2.000000
  0.466667  0.133333  0.000000      2.000000
 -0.466667  0.133333  0.000000      2.000000
 -0.400000  0.133333  0.000000      2.000000
 -0.333333  0.133333  0.000000      2.000000
 -0.266667  0.133333  0.000000      2.000000
 -0.200000  0.133333  0.000000      2.000000
 -0.133333  0.133333  0.000000      2.000000
 -0.066667  0.133333  0.000000      2.000000
  0.000000  0.200000  0.000000      2.000000
  0.066667  0.200000  0.000000      2.000000
  0.133333  0.200000  0.000000      2.000000
  0.200000  0.200000  0.000000      2.000000
  0.266667  0.200000  0.000000      2.000000
  0.333333  0.200000  0.000000      2.000000
  0.400000  0.200000  0.000000      2.000000
  0.466667  0.200000  0.000000      2.000000
 -0.466667  0.200000  0.000000      2.000000
 -0.400000  0.200000  0.000000      2.000000
 -0.333333  0.200000  0.000000      2.000000
 -0.266667  0.200000  0.000000      2.000000
 -0.200000  0.200000  0.000000      2.000000
 -0.133333  0.200000  0.000000      2.000000
 -0.066667  0.200000  0.000000      2.000000
  0.000000  0.266667  0.000000      2.000000
  0.066667  0.266667  0.000000      2.000000
  0.133333  0.266667  0.000000      2.000000
  0.200000  0.266667  0.000000      2.000000
  0.266667  0.266667  0.000000      2.000000
  0.333333  0.266667  0.000000      2.000000
  0.400000  0.266667  0.000000      2.000000
  0.466667  0.266667  0.000000      2.000000
 -0.466667  0.266667  0.000000      2.000000
 -0.400000  0.266667  0.000000      2.000000
 -0.333333  0.266667  0.000000      2.000000
 -0.266667  0.266667  0.000000      2.000000
 -0.200000  0.266667  0.000000      2.000000
 -0.133333  0.266667  0.000000      2.000000
 -0.066667  0.266667  0.000000      2.000000
  0.000000  0.333333  0.000000      2.000000
  0.066667  0.333333  0.000000      2.000000
  0.133333  0.333333  0.000000      2.000000
  0.200000  0.333333  0.000000      2.000000
  0.266667  0.333333  0.000000      2.000000
  0.333333  0.333333  0.000000      2.000000
  0.400000  0.333333  0.000000      2.000000
  0.466667  0.333333  0.000000      2.000000
 -0.466667  0.333333  0.000000      2.000000
 -0.400000  0.333333  0.000000      2.000000
 -0.333333  0.333333  0.000000      2.000000
 -0.266667  0.333333  0.000000      2.000000
 -0.200000  0.333333  0.000000      2.000000
 -0.133333  0.333333  0.000000      2.000000
 -0.066667  0.333333  0.000000      2.000000
  0.000000  0.400000  0.000000      2.000000
  0.066667  0.400000  0.000000      2.000000
  0.133333  0.400000  0.000000      2.000000
  0.200000  0.400000  0.000000      2.000000
  0.266667  0.400000  0.000000      2.000000
  0.333333  0.400000  0.000000      2.000000
  0.400000  0.400000  0.000000      2.000000
  0.466667  0.400000  0.000000      2.000000
 -0.466667  0.400000  0.000000      2.000000
 -0.400000  0.400000  0.000000      2.000000
 -0.333333  0.400000  0.000000      2.000000
 -0.266667  0.400000  0.000000      2.000000
 -0.200000  0.400000  0.000000      2.000000
 -0.133333  0.400000  0.000000      2.000000
 -0.066667  0.400000  0.000000      2.000000
  0.000000  0.466667  0.000000      2.000000
  0.066667  0.466667  0.000000      2.000000
  0.133333  0.466667  0.000000      2.000000
  0.200000  0.466667  0.000000      2.000000
  0.266667  0.466667  0.000000      2.000000
  0.333333  0.466667  0.000000      2.000000
  0.400000  0.466667  0.000000      2.000000
  0.466667  0.466667  0.000000      2.000000
 -0.466667  0.466667  0.000000      2.000000
 -0.400000  0.466667  0.000000      2.000000
 -0.333333  0.466667  0.000000      2.000000
 -0.266667  0.466667  0.000000      2.000000
 -0.200000  0.466667  0.000000      2.000000
 -0.133333  0.466667  0.000000      2.000000
 -0.066667  0.466667  0.000000      2.000000
 
 Following cartesian coordinates:
            Coordinates               Weight
  0.000000  0.000000  0.000000      1.000000
  0.015213  0.000000  0.000000      2.000000
  0.030425  0.000000  0.000000      2.000000
  0.045638  0.000000  0.000000      2.000000
  0.060850  0.000000  0.000000      2.000000
  0.076063  0.000000  0.000000      2.000000
  0.091275  0.000000  0.000000      2.000000
  0.106488  0.000000  0.000000      2.000000
  0.000000  0.015377  0.000000      2.000000
  0.015213  0.015377  0.000000      2.000000
  0.030425  0.015377  0.000000      2.000000
  0.045638  0.015377  0.000000      2.000000
  0.060850  0.015377  0.000000      2.000000
  0.076063  0.015377  0.000000      2.000000
  0.091275  0.015377  0.000000      2.000000
  0.106488  0.015377  0.000000      2.000000
 -0.106488  0.015377  0.000000      2.000000
 -0.091275  0.015377  0.000000      2.000000
 -0.076063  0.015377  0.000000      2.000000
 -0.060850  0.015377  0.000000      2.000000
 -0.045638  0.015377  0.000000      2.000000
 -0.030425  0.015377  0.000000      2.000000
 -0.015213  0.015377  0.000000      2.000000
  0.000000  0.030755  0.000000      2.000000
  0.015213  0.030755  0.000000      2.000000
  0.030425  0.030755  0.000000      2.000000
  0.045638  0.030755  0.000000      2.000000
  0.060850  0.030755  0.000000      2.000000
  0.076063  0.030755  0.000000      2.000000
  0.091275  0.030755  0.000000      2.000000
  0.106488  0.030755  0.000000      2.000000
 -0.106488  0.030755  0.000000      2.000000
 -0.091275  0.030755  0.000000      2.000000
 -0.076063  0.030755  0.000000      2.000000
 -0.060850  0.030755  0.000000      2.000000
 -0.045638  0.030755  0.000000      2.000000
 -0.030425  0.030755  0.000000      2.000000
 -0.015213  0.030755  0.000000      2.000000
  0.000000  0.046132  0.000000      2.000000
  0.015213  0.046132  0.000000      2.000000
  0.030425  0.046132  0.000000      2.000000
  0.045638  0.046132  0.000000      2.000000
  0.060850  0.046132  0.000000      2.000000
  0.076063  0.046132  0.000000      2.000000
  0.091275  0.046132  0.000000      2.000000
  0.106488  0.046132  0.000000      2.000000
 -0.106488  0.046132  0.000000      2.000000
 -0.091275  0.046132  0.000000      2.000000
 -0.076063  0.046132  0.000000      2.000000
 -0.060850  0.046132  0.000000      2.000000
 -0.045638  0.046132  0.000000      2.000000
 -0.030425  0.046132  0.000000      2.000000
 -0.015213  0.046132  0.000000      2.000000
  0.000000  0.061509  0.000000      2.000000
  0.015213  0.061509  0.000000      2.000000
  0.030425  0.061509  0.000000      2.000000
  0.045638  0.061509  0.000000      2.000000
  0.060850  0.061509  0.000000      2.000000
  0.076063  0.061509  0.000000      2.000000
  0.091275  0.061509  0.000000      2.000000
  0.106488  0.061509  0.000000      2.000000
 -0.106488  0.061509  0.000000      2.000000
 -0.091275  0.061509  0.000000      2.000000
 -0.076063  0.061509  0.000000      2.000000
 -0.060850  0.061509  0.000000      2.000000
 -0.045638  0.061509  0.000000      2.000000
 -0.030425  0.061509  0.000000      2.000000
 -0.015213  0.061509  0.000000      2.000000
  0.000000  0.076886  0.000000      2.000000
  0.015213  0.076886  0.000000      2.000000
  0.030425  0.076886  0.000000      2.000000
  0.045638  0.076886  0.000000      2.000000
  0.060850  0.076886  0.000000      2.000000
  0.076063  0.076886  0.000000      2.000000
  0.091275  0.076886  0.000000      2.000000
  0.106488  0.076886  0.000000      2.000000
 -0.106488  0.076886  0.000000      2.000000
 -0.091275  0.076886  0.000000      2.000000
 -0.076063  0.076886  0.000000      2.000000
 -0.060850  0.076886  0.000000      2.000000
 -0.045638  0.076886  0.000000      2.000000
 -0.030425  0.076886  0.000000      2.000000
 -0.015213  0.076886  0.000000      2.000000
  0.000000  0.092264  0.000000      2.000000
  0.015213  0.092264  0.000000      2.000000
  0.030425  0.092264  0.000000      2.000000
  0.045638  0.092264  0.000000      2.000000
  0.060850  0.092264  0.000000      2.000000
  0.076063  0.092264  0.000000      2.000000
  0.091275  0.092264  0.000000      2.000000
  0.106488  0.092264  0.000000      2.000000
 -0.106488  0.092264  0.000000      2.000000
 -0.091275  0.092264  0.000000      2.000000
 -0.076063  0.092264  0.000000      2.000000
 -0.060850  0.092264  0.000000      2.000000
 -0.045638  0.092264  0.000000      2.000000
 -0.030425  0.092264  0.000000      2.000000
 -0.015213  0.092264  0.000000      2.000000
  0.000000  0.107641  0.000000      2.000000
  0.015213  0.107641  0.000000      2.000000
  0.030425  0.107641  0.000000      2.000000
  0.045638  0.107641  0.000000      2.000000
  0.060850  0.107641  0.000000      2.000000
  0.076063  0.107641  0.000000      2.000000
  0.091275  0.107641  0.000000      2.000000
  0.106488  0.107641  0.000000      2.000000
 -0.106488  0.107641  0.000000      2.000000
 -0.091275  0.107641  0.000000      2.000000
 -0.076063  0.107641  0.000000      2.000000
 -0.060850  0.107641  0.000000      2.000000
 -0.045638  0.107641  0.000000      2.000000
 -0.030425  0.107641  0.000000      2.000000
 -0.015213  0.107641  0.000000      2.000000
 


--------------------------------------------------------------------------------------------------------




 Dimension of arrays:
   k-points           NKPTS =    113   k-points in BZ     NKDIM =    113   number of bands    NBANDS=     14
   number of dos      NEDOS =    301   number of ions     NIONS =      4
   non local maximal  LDIM  =      5   non local SUM 2l+1 LMDIM =     13
   total plane-waves  NPLWV = 207360
   max r-space proj   IRMAX =      1   max aug-charges    IRDMAX=  52722
   dimension x,y,z NGX =    36 NGY =   36 NGZ =  160
   dimension x,y,z NGXF=    72 NGYF=   72 NGZF=  320
   support grid    NGXF=    72 NGYF=   72 NGZF=  320
   ions per type =               2   2
   NGX,Y,Z   is equivalent  to a cutoff of  13.66, 13.80, 13.30 a.u.
   NGXF,Y,Z  is equivalent  to a cutoff of  27.31, 27.61, 26.60 a.u.

 SYSTEM =  SnSe                                    
 POSCAR =   POSCAR with strain of 0.010            

 Startparameter for this run:
   NWRITE =      2    write-flag & timer
   PREC   = accura    normal or accurate (medium, high low for compatibility)
   ISTART =      0    job   : 0-new  1-cont  2-samecut
   ICHARG =      2    charge: 1-file 2-atom 10-const
   ISPIN  =      1    spin polarized calculation?
   LNONCOLLINEAR =      F non collinear calculations
   LSORBIT =      F    spin-orbit coupling
   INIWAV =      1    electr: 0-lowe 1-rand  2-diag
   LASPH  =      F    aspherical Exc in radial PAW
   METAGGA=      F    non-selfconsistent MetaGGA calc.

 Electronic Relaxation 1
   ENCUT  =  600.0 eV  44.10 Ry    6.64 a.u.   8.75  8.66 39.94*2*pi/ulx,y,z
   ENINI  =  600.0     initial cutoff
   ENAUG  =  446.8 eV  augmentation charge cutoff
   NELM   =     60;   NELMIN=  2; NELMDL= -5     # of ELM steps 
   EDIFF  = 0.1E-05   stopping-criterion for ELM
   LREAL  =      F    real-space projection
   NLSPLINE    = F    spline interpolate recip. space projectors
   LCOMPAT=      F    compatible to vasp.4.4
   GGA_COMPAT  = T    GGA compatible to vasp.4.4-vasp.4.6
   LMAXPAW     = -100 max onsite density
   LMAXMIX     =    2 max onsite mixed and CHGCAR
   VOSKOWN=      0    Vosko Wilk Nusair interpolation
   ROPT   =    0.00000   0.00000
 Ionic relaxation
   EDIFFG = -.1E-02   stopping-criterion for IOM
   NSW    =    100    number of steps for IOM
   NBLOCK =      1;   KBLOCK =    100    inner block; outer block 
   IBRION =      2    ionic relax: 0-MD 1-quasi-New 2-CG
   NFREE  =      1    steps in history (QN), initial steepest desc. (CG)
   ISIF   =      2    stress and relaxation
   IWAVPR =     11    prediction:  0-non 1-charg 2-wave 3-comb
   ISYM   =      0    0-nonsym 1-usesym 2-fastsym
   LCORR  =      T    Harris-Foulkes like correction to forces

   POTIM  = 0.5000    time-step for ionic-motion
   TEIN   =    0.0    initial temperature
   TEBEG  =    0.0;   TEEND  =   0.0 temperature during run
   SMASS  =  -3.00    Nose mass-parameter (am)
   estimated Nose-frequenzy (Omega)   =  0.10E-29 period in steps =****** mass=  -0.439E-27a.u.
   SCALEE = 1.0000    scale energy and forces
   NPACO  =    256;   APACO  = 16.0  distance and # of slots for P.C.
   PSTRESS=    0.0 pullay stress

  Mass of Ions in am
   POMASS = 118.71 78.96
  Ionic Valenz
   ZVAL   =   4.00  6.00
  Atomic Wigner-Seitz radii
   RWIGS  =  -1.00 -1.00
  virtual crystal weights 
   VCA    =   1.00  1.00
   NELECT =      20.0000    total number of electrons
   NUPDOWN=      -1.0000    fix difference up-down

 DOS related values:
   EMIN   =  10.00;   EMAX   =-10.00  energy-range for DOS
   EFERMI =   0.00
   ISMEAR =     0;   SIGMA  =   0.10  broadening in eV -4-tet -1-fermi 0-gaus

 Electronic relaxation 2 (details)
   IALGO  =     38    algorithm
   LDIAG  =      T    sub-space diagonalisation (order eigenvalues)
   LSUBROT=      F    optimize rotation matrix (better conditioning)
   TURBO    =      0    0=normal 1=particle mesh
   IRESTART =      0    0=no restart 2=restart with 2 vectors
   NREBOOT  =      0    no. of reboots
   NMIN     =      0    reboot dimension
   EREF     =   0.00    reference energy to select bands
   IMIX   =      4    mixing-type and parameters
     AMIX     =   0.40;   BMIX     =  1.00
     AMIX_MAG =   1.60;   BMIX_MAG =  1.00
     AMIN     =   0.10
     WC   =   100.;   INIMIX=   1;  MIXPRE=   1;  MAXMIX= -45

 Intra band minimization:
   WEIMIN = 0.0010     energy-eigenvalue tresh-hold
   EBREAK =  0.18E-07  absolut break condition
   DEPER  =   0.30     relativ break condition  

   TIME   =   0.40     timestep for ELM

  volume/ion in A,a.u.               =      95.00       641.07
  Fermi-wavevector in a.u.,A,eV,Ry     =   0.613521  1.159386  5.121334  0.376407
  Thomas-Fermi vector in A             =   1.670200
 
 Write flags
   LWAVE        =      T    write WAVECAR
   LDOWNSAMPLE  =      F    k-point downsampling of WAVECAR
   LCHARG       =      T    write CHGCAR
   LVTOT        =      F    write LOCPOT, total local potential
   LVHAR        =      F    write LOCPOT, Hartree potential only
   LELF         =      F    write electronic localiz. function (ELF)
   LORBIT       =      0    0 simple, 1 ext, 2 COOP (PROOUT), +10 PAW based schemes


 Dipole corrections
   LMONO  =      F    monopole corrections only (constant potential shift)
   LDIPOL =      F    correct potential (dipole corrections)
   IDIPOL =      0    1-x, 2-y, 3-z, 4-all directions 
   EPSILON=  1.0000000 bulk dielectric constant

 Exchange correlation treatment:
   GGA     =    PE    GGA type
   LEXCH   =     8    internal setting for exchange type
   VOSKOWN=      0    Vosko Wilk Nusair interpolation
   LHFCALC =     F    Hartree Fock is set to
   LHFONE  =     F    Hartree Fock one center treatment
   AEXX    =    0.0000 exact exchange contribution

 Linear response parameters
   LEPSILON=     F    determine dielectric tensor
   LRPA    =     F    only Hartree local field effects (RPA)
   LNABLA  =     F    use nabla operator in PAW spheres
   LVEL    =     F    velocity operator in full k-point grid
   LINTERFAST=   F  fast interpolation
   KINTER  =     0    interpolate to denser k-point grid
   CSHIFT  =0.1000    complex shift for real part using Kramers Kronig
   OMEGAMAX=  -1.0    maximum frequency
   DEG_THRESHOLD= 0.2000000E-02 threshold for treating states as degnerate
   RTIME   =   -0.100 relaxation time in fs
  (WPLASMAI=    0.000 imaginary part of plasma frequency in eV, 0.658/RTIME)
   DFIELD  = 0.0000000 0.0000000 0.0000000 field for delta impulse in time
 
 Orbital magnetization related:
   ORBITALMAG=     F  switch on orbital magnetization
   LCHIMAG   =     F  perturbation theory with respect to B field
   DQ        =  0.001000  dq finite difference perturbation B field
   LLRAUG    =     F  two centre corrections for induced B field



--------------------------------------------------------------------------------------------------------


 conjugate gradient relaxation of ions
 charge density and potential will be updated during run
 non-spin polarized calculation
 Variant of blocked Davidson
 Davidson routine will perform the subspace rotation
 perform sub-space diagonalisation
    after iterative eigenvector-optimisation
 modified Broyden-mixing scheme, WC =      100.0
 initial mixing is a Kerker type mixing with AMIX =  0.4000 and BMIX =      1.0000
 Hartree-type preconditioning will be used
 using additional bands            4
 reciprocal scheme for non local part
 use partial core corrections
 calculate Harris-corrections to forces 
   (improved forces if not selfconsistent)
 use gradient corrections 
 use of overlap-Matrix (Vanderbilt PP)
 Gauss-broadening in eV      SIGMA  =   0.10


--------------------------------------------------------------------------------------------------------


  energy-cutoff  :      600.00
  volume of cell :      379.99
      direct lattice vectors                 reciprocal lattice vectors
     4.382356765  0.000000000  0.000000000     0.228187720  0.000000000  0.000000000
     0.000000000  4.335402636  0.000000000     0.000000000  0.230659084  0.000000000
     0.000000000  0.000000000 20.000000000     0.000000000  0.000000000  0.050000000

  length of vectors
     4.382356765  4.335402636 20.000000000     0.228187720  0.230659084  0.050000000


 
 k-points in units of 2pi/SCALE and weight: KMesh Grid                              
   0.00000000  0.00000000  0.00000000       0.004
   0.01521251  0.00000000  0.00000000       0.009
   0.03042503  0.00000000  0.00000000       0.009
   0.04563754  0.00000000  0.00000000       0.009
   0.06085006  0.00000000  0.00000000       0.009
   0.07606257  0.00000000  0.00000000       0.009
   0.09127509  0.00000000  0.00000000       0.009
   0.10648760  0.00000000  0.00000000       0.009
   0.00000000  0.01537727  0.00000000       0.009
   0.01521251  0.01537727  0.00000000       0.009
   0.03042503  0.01537727  0.00000000       0.009
   0.04563754  0.01537727  0.00000000       0.009
   0.06085006  0.01537727  0.00000000       0.009
   0.07606257  0.01537727  0.00000000       0.009
   0.09127509  0.01537727  0.00000000       0.009
   0.10648760  0.01537727  0.00000000       0.009
  -0.10648760  0.01537727  0.00000000       0.009
  -0.09127509  0.01537727  0.00000000       0.009
  -0.07606257  0.01537727  0.00000000       0.009
  -0.06085006  0.01537727  0.00000000       0.009
  -0.04563754  0.01537727  0.00000000       0.009
  -0.03042503  0.01537727  0.00000000       0.009
  -0.01521251  0.01537727  0.00000000       0.009
   0.00000000  0.03075454  0.00000000       0.009
   0.01521251  0.03075454  0.00000000       0.009
   0.03042503  0.03075454  0.00000000       0.009
   0.04563754  0.03075454  0.00000000       0.009
   0.06085006  0.03075454  0.00000000       0.009
   0.07606257  0.03075454  0.00000000       0.009
   0.09127509  0.03075454  0.00000000       0.009
   0.10648760  0.03075454  0.00000000       0.009
  -0.10648760  0.03075454  0.00000000       0.009
  -0.09127509  0.03075454  0.00000000       0.009
  -0.07606257  0.03075454  0.00000000       0.009
  -0.06085006  0.03075454  0.00000000       0.009
  -0.04563754  0.03075454  0.00000000       0.009
  -0.03042503  0.03075454  0.00000000       0.009
  -0.01521251  0.03075454  0.00000000       0.009
   0.00000000  0.04613182  0.00000000       0.009
   0.01521251  0.04613182  0.00000000       0.009
   0.03042503  0.04613182  0.00000000       0.009
   0.04563754  0.04613182  0.00000000       0.009
   0.06085006  0.04613182  0.00000000       0.009
   0.07606257  0.04613182  0.00000000       0.009
   0.09127509  0.04613182  0.00000000       0.009
   0.10648760  0.04613182  0.00000000       0.009
  -0.10648760  0.04613182  0.00000000       0.009
  -0.09127509  0.04613182  0.00000000       0.009
  -0.07606257  0.04613182  0.00000000       0.009
  -0.06085006  0.04613182  0.00000000       0.009
  -0.04563754  0.04613182  0.00000000       0.009
  -0.03042503  0.04613182  0.00000000       0.009
  -0.01521251  0.04613182  0.00000000       0.009
   0.00000000  0.06150909  0.00000000       0.009
   0.01521251  0.06150909  0.00000000       0.009
   0.03042503  0.06150909  0.00000000       0.009
   0.04563754  0.06150909  0.00000000       0.009
   0.06085006  0.06150909  0.00000000       0.009
   0.07606257  0.06150909  0.00000000       0.009
   0.09127509  0.06150909  0.00000000       0.009
   0.10648760  0.06150909  0.00000000       0.009
  -0.10648760  0.06150909  0.00000000       0.009
  -0.09127509  0.06150909  0.00000000       0.009
  -0.07606257  0.06150909  0.00000000       0.009
  -0.06085006  0.06150909  0.00000000       0.009
  -0.04563754  0.06150909  0.00000000       0.009
  -0.03042503  0.06150909  0.00000000       0.009
  -0.01521251  0.06150909  0.00000000       0.009
   0.00000000  0.07688636  0.00000000       0.009
   0.01521251  0.07688636  0.00000000       0.009
   0.03042503  0.07688636  0.00000000       0.009
   0.04563754  0.07688636  0.00000000       0.009
   0.06085006  0.07688636  0.00000000       0.009
   0.07606257  0.07688636  0.00000000       0.009
   0.09127509  0.07688636  0.00000000       0.009
   0.10648760  0.07688636  0.00000000       0.009
  -0.10648760  0.07688636  0.00000000       0.009
  -0.09127509  0.07688636  0.00000000       0.009
  -0.07606257  0.07688636  0.00000000       0.009
  -0.06085006  0.07688636  0.00000000       0.009
  -0.04563754  0.07688636  0.00000000       0.009
  -0.03042503  0.07688636  0.00000000       0.009
  -0.01521251  0.07688636  0.00000000       0.009
   0.00000000  0.09226363  0.00000000       0.009
   0.01521251  0.09226363  0.00000000       0.009
   0.03042503  0.09226363  0.00000000       0.009
   0.04563754  0.09226363  0.00000000       0.009
   0.06085006  0.09226363  0.00000000       0.009
   0.07606257  0.09226363  0.00000000       0.009
   0.09127509  0.09226363  0.00000000       0.009
   0.10648760  0.09226363  0.00000000       0.009
  -0.10648760  0.09226363  0.00000000       0.009
  -0.09127509  0.09226363  0.00000000       0.009
  -0.07606257  0.09226363  0.00000000       0.009
  -0.06085006  0.09226363  0.00000000       0.009
  -0.04563754  0.09226363  0.00000000       0.009
  -0.03042503  0.09226363  0.00000000       0.009
  -0.01521251  0.09226363  0.00000000       0.009
   0.00000000  0.10764091  0.00000000       0.009
   0.01521251  0.10764091  0.00000000       0.009
   0.03042503  0.10764091  0.00000000       0.009
   0.04563754  0.10764091  0.00000000       0.009
   0.06085006  0.10764091  0.00000000       0.009
   0.07606257  0.10764091  0.00000000       0.009
   0.09127509  0.10764091  0.00000000       0.009
   0.10648760  0.10764091  0.00000000       0.009
  -0.10648760  0.10764091  0.00000000       0.009
  -0.09127509  0.10764091  0.00000000       0.009
  -0.07606257  0.10764091  0.00000000       0.009
  -0.06085006  0.10764091  0.00000000       0.009
  -0.04563754  0.10764091  0.00000000       0.009
  -0.03042503  0.10764091  0.00000000       0.009
  -0.01521251  0.10764091  0.00000000       0.009
 
 k-points in reciprocal lattice and weights: KMesh Grid                              
   0.00000000  0.00000000  0.00000000       0.004
   0.06666667  0.00000000  0.00000000       0.009
   0.13333333  0.00000000  0.00000000       0.009
   0.20000000  0.00000000  0.00000000       0.009
   0.26666667  0.00000000  0.00000000       0.009
   0.33333333  0.00000000  0.00000000       0.009
   0.40000000  0.00000000  0.00000000       0.009
   0.46666667  0.00000000  0.00000000       0.009
   0.00000000  0.06666667  0.00000000       0.009
   0.06666667  0.06666667  0.00000000       0.009
   0.13333333  0.06666667  0.00000000       0.009
   0.20000000  0.06666667  0.00000000       0.009
   0.26666667  0.06666667  0.00000000       0.009
   0.33333333  0.06666667  0.00000000       0.009
   0.40000000  0.06666667  0.00000000       0.009
   0.46666667  0.06666667  0.00000000       0.009
  -0.46666667  0.06666667  0.00000000       0.009
  -0.40000000  0.06666667  0.00000000       0.009
  -0.33333333  0.06666667  0.00000000       0.009
  -0.26666667  0.06666667  0.00000000       0.009
  -0.20000000  0.06666667  0.00000000       0.009
  -0.13333333  0.06666667  0.00000000       0.009
  -0.06666667  0.06666667  0.00000000       0.009
   0.00000000  0.13333333  0.00000000       0.009
   0.06666667  0.13333333  0.00000000       0.009
   0.13333333  0.13333333  0.00000000       0.009
   0.20000000  0.13333333  0.00000000       0.009
   0.26666667  0.13333333  0.00000000       0.009
   0.33333333  0.13333333  0.00000000       0.009
   0.40000000  0.13333333  0.00000000       0.009
   0.46666667  0.13333333  0.00000000       0.009
  -0.46666667  0.13333333  0.00000000       0.009
  -0.40000000  0.13333333  0.00000000       0.009
  -0.33333333  0.13333333  0.00000000       0.009
  -0.26666667  0.13333333  0.00000000       0.009
  -0.20000000  0.13333333  0.00000000       0.009
  -0.13333333  0.13333333  0.00000000       0.009
  -0.06666667  0.13333333  0.00000000       0.009
   0.00000000  0.20000000  0.00000000       0.009
   0.06666667  0.20000000  0.00000000       0.009
   0.13333333  0.20000000  0.00000000       0.009
   0.20000000  0.20000000  0.00000000       0.009
   0.26666667  0.20000000  0.00000000       0.009
   0.33333333  0.20000000  0.00000000       0.009
   0.40000000  0.20000000  0.00000000       0.009
   0.46666667  0.20000000  0.00000000       0.009
  -0.46666667  0.20000000  0.00000000       0.009
  -0.40000000  0.20000000  0.00000000       0.009
  -0.33333333  0.20000000  0.00000000       0.009
  -0.26666667  0.20000000  0.00000000       0.009
  -0.20000000  0.20000000  0.00000000       0.009
  -0.13333333  0.20000000  0.00000000       0.009
  -0.06666667  0.20000000  0.00000000       0.009
   0.00000000  0.26666667  0.00000000       0.009
   0.06666667  0.26666667  0.00000000       0.009
   0.13333333  0.26666667  0.00000000       0.009
   0.20000000  0.26666667  0.00000000       0.009
   0.26666667  0.26666667  0.00000000       0.009
   0.33333333  0.26666667  0.00000000       0.009
   0.40000000  0.26666667  0.00000000       0.009
   0.46666667  0.26666667  0.00000000       0.009
  -0.46666667  0.26666667  0.00000000       0.009
  -0.40000000  0.26666667  0.00000000       0.009
  -0.33333333  0.26666667  0.00000000       0.009
  -0.26666667  0.26666667  0.00000000       0.009
  -0.20000000  0.26666667  0.00000000       0.009
  -0.13333333  0.26666667  0.00000000       0.009
  -0.06666667  0.26666667  0.00000000       0.009
   0.00000000  0.33333333  0.00000000       0.009
   0.06666667  0.33333333  0.00000000       0.009
   0.13333333  0.33333333  0.00000000       0.009
   0.20000000  0.33333333  0.00000000       0.009
   0.26666667  0.33333333  0.00000000       0.009
   0.33333333  0.33333333  0.00000000       0.009
   0.40000000  0.33333333  0.00000000       0.009
   0.46666667  0.33333333  0.00000000       0.009
  -0.46666667  0.33333333  0.00000000       0.009
  -0.40000000  0.33333333  0.00000000       0.009
  -0.33333333  0.33333333  0.00000000       0.009
  -0.26666667  0.33333333  0.00000000       0.009
  -0.20000000  0.33333333  0.00000000       0.009
  -0.13333333  0.33333333  0.00000000       0.009
  -0.06666667  0.33333333  0.00000000       0.009
   0.00000000  0.40000000  0.00000000       0.009
   0.06666667  0.40000000  0.00000000       0.009
   0.13333333  0.40000000  0.00000000       0.009
   0.20000000  0.40000000  0.00000000       0.009
   0.26666667  0.40000000  0.00000000       0.009
   0.33333333  0.40000000  0.00000000       0.009
   0.40000000  0.40000000  0.00000000       0.009
   0.46666667  0.40000000  0.00000000       0.009
  -0.46666667  0.40000000  0.00000000       0.009
  -0.40000000  0.40000000  0.00000000       0.009
  -0.33333333  0.40000000  0.00000000       0.009
  -0.26666667  0.40000000  0.00000000       0.009
  -0.20000000  0.40000000  0.00000000       0.009
  -0.13333333  0.40000000  0.00000000       0.009
  -0.06666667  0.40000000  0.00000000       0.009
   0.00000000  0.46666667  0.00000000       0.009
   0.06666667  0.46666667  0.00000000       0.009
   0.13333333  0.46666667  0.00000000       0.009
   0.20000000  0.46666667  0.00000000       0.009
   0.26666667  0.46666667  0.00000000       0.009
   0.33333333  0.46666667  0.00000000       0.009
   0.40000000  0.46666667  0.00000000       0.009
   0.46666667  0.46666667  0.00000000       0.009
  -0.46666667  0.46666667  0.00000000       0.009
  -0.40000000  0.46666667  0.00000000       0.009
  -0.33333333  0.46666667  0.00000000       0.009
  -0.26666667  0.46666667  0.00000000       0.009
  -0.20000000  0.46666667  0.00000000       0.009
  -0.13333333  0.46666667  0.00000000       0.009
  -0.06666667  0.46666667  0.00000000       0.009
 
 position of ions in fractional coordinates (direct lattice) 
   0.58124336  0.75000000  0.56874314
   0.08124336  0.25000000  0.43125686
   0.03286064  0.25000000  0.56707387
   0.53286061  0.75000000  0.43292613
 
 position of ions in cartesian coordinates  (Angst):
   2.54721576  3.25155198 11.37486283
   0.35603738  1.08385066  8.62513717
   0.14400706  1.08385066 11.34147733
   2.33518532  3.25155198  8.65852267
 


--------------------------------------------------------------------------------------------------------


 k-point  1 :   0.0000 0.0000 0.0000  plane waves:   12751
 k-point  2 :   0.0667 0.0000 0.0000  plane waves:   12737
 k-point  3 :   0.1333 0.0000 0.0000  plane waves:   12697
 k-point  4 :   0.2000 0.0000 0.0000  plane waves:   12681
 k-point  5 :   0.2667 0.0000 0.0000  plane waves:   12692
 k-point  6 :   0.3333 0.0000 0.0000  plane waves:   12664
 k-point  7 :   0.4000 0.0000 0.0000  plane waves:   12694
 k-point  8 :   0.4667 0.0000 0.0000  plane waves:   12682
 k-point  9 :   0.0000 0.0667 0.0000  plane waves:   12733
 k-point 10 :   0.0667 0.0667 0.0000  plane waves:   12720
 k-point 11 :   0.1333 0.0667 0.0000  plane waves:   12705
 k-point 12 :   0.2000 0.0667 0.0000  plane waves:   12668
 k-point 13 :   0.2667 0.0667 0.0000  plane waves:   12657
 k-point 14 :   0.3333 0.0667 0.0000  plane waves:   12688
 k-point 15 :   0.4000 0.0667 0.0000  plane waves:   12695
 k-point 16 :   0.4667 0.0667 0.0000  plane waves:   12673
 k-point 17 :  -0.4667 0.0667 0.0000  plane waves:   12673
 k-point 18 :  -0.4000 0.0667 0.0000  plane waves:   12695
 k-point 19 :  -0.3333 0.0667 0.0000  plane waves:   12688
 k-point 20 :  -0.2667 0.0667 0.0000  plane waves:   12657
 k-point 21 :  -0.2000 0.0667 0.0000  plane waves:   12668
 k-point 22 :  -0.1333 0.0667 0.0000  plane waves:   12705
 k-point 23 :  -0.0667 0.0667 0.0000  plane waves:   12720
 k-point 24 :   0.0000 0.1333 0.0000  plane waves:   12689
 k-point 25 :   0.0667 0.1333 0.0000  plane waves:   12678
 k-point 26 :   0.1333 0.1333 0.0000  plane waves:   12684
 k-point 27 :   0.2000 0.1333 0.0000  plane waves:   12667
 k-point 28 :   0.2667 0.1333 0.0000  plane waves:   12662
 k-point 29 :   0.3333 0.1333 0.0000  plane waves:   12696
 k-point 30 :   0.4000 0.1333 0.0000  plane waves:   12697
 k-point 31 :   0.4667 0.1333 0.0000  plane waves:   12717
 k-point 32 :  -0.4667 0.1333 0.0000  plane waves:   12717
 k-point 33 :  -0.4000 0.1333 0.0000  plane waves:   12697
 k-point 34 :  -0.3333 0.1333 0.0000  plane waves:   12696
 k-point 35 :  -0.2667 0.1333 0.0000  plane waves:   12662
 k-point 36 :  -0.2000 0.1333 0.0000  plane waves:   12667
 k-point 37 :  -0.1333 0.1333 0.0000  plane waves:   12684
 k-point 38 :  -0.0667 0.1333 0.0000  plane waves:   12678
 k-point 39 :   0.0000 0.2000 0.0000  plane waves:   12675
 k-point 40 :   0.0667 0.2000 0.0000  plane waves:   12678
 k-point 41 :   0.1333 0.2000 0.0000  plane waves:   12644
 k-point 42 :   0.2000 0.2000 0.0000  plane waves:   12666
 k-point 43 :   0.2667 0.2000 0.0000  plane waves:   12675
 k-point 44 :   0.3333 0.2000 0.0000  plane waves:   12693
 k-point 45 :   0.4000 0.2000 0.0000  plane waves:   12698
 k-point 46 :   0.4667 0.2000 0.0000  plane waves:   12699
 k-point 47 :  -0.4667 0.2000 0.0000  plane waves:   12699
 k-point 48 :  -0.4000 0.2000 0.0000  plane waves:   12698
 k-point 49 :  -0.3333 0.2000 0.0000  plane waves:   12693
 k-point 50 :  -0.2667 0.2000 0.0000  plane waves:   12675
 k-point 51 :  -0.2000 0.2000 0.0000  plane waves:   12666
 k-point 52 :  -0.1333 0.2000 0.0000  plane waves:   12644
 k-point 53 :  -0.0667 0.2000 0.0000  plane waves:   12678
 k-point 54 :   0.0000 0.2667 0.0000  plane waves:   12669
 k-point 55 :   0.0667 0.2667 0.0000  plane waves:   12666
 k-point 56 :   0.1333 0.2667 0.0000  plane waves:   12676
 k-point 57 :   0.2000 0.2667 0.0000  plane waves:   12676
 k-point 58 :   0.2667 0.2667 0.0000  plane waves:   12660
 k-point 59 :   0.3333 0.2667 0.0000  plane waves:   12661
 k-point 60 :   0.4000 0.2667 0.0000  plane waves:   12680
 k-point 61 :   0.4667 0.2667 0.0000  plane waves:   12689
 k-point 62 :  -0.4667 0.2667 0.0000  plane waves:   12689
 k-point 63 :  -0.4000 0.2667 0.0000  plane waves:   12680
 k-point 64 :  -0.3333 0.2667 0.0000  plane waves:   12661
 k-point 65 :  -0.2667 0.2667 0.0000  plane waves:   12660
 k-point 66 :  -0.2000 0.2667 0.0000  plane waves:   12676
 k-point 67 :  -0.1333 0.2667 0.0000  plane waves:   12676
 k-point 68 :  -0.0667 0.2667 0.0000  plane waves:   12666
 k-point 69 :   0.0000 0.3333 0.0000  plane waves:   12649
 k-point 70 :   0.0667 0.3333 0.0000  plane waves:   12656
 k-point 71 :   0.1333 0.3333 0.0000  plane waves:   12656
 k-point 72 :   0.2000 0.3333 0.0000  plane waves:   12672
 k-point 73 :   0.2667 0.3333 0.0000  plane waves:   12681
 k-point 74 :   0.3333 0.3333 0.0000  plane waves:   12669
 k-point 75 :   0.4000 0.3333 0.0000  plane waves:   12670
 k-point 76 :   0.4667 0.3333 0.0000  plane waves:   12684
 k-point 77 :  -0.4667 0.3333 0.0000  plane waves:   12684
 k-point 78 :  -0.4000 0.3333 0.0000  plane waves:   12670
 k-point 79 :  -0.3333 0.3333 0.0000  plane waves:   12669
 k-point 80 :  -0.2667 0.3333 0.0000  plane waves:   12681
 k-point 81 :  -0.2000 0.3333 0.0000  plane waves:   12672
 k-point 82 :  -0.1333 0.3333 0.0000  plane waves:   12656
 k-point 83 :  -0.0667 0.3333 0.0000  plane waves:   12656
 k-point 84 :   0.0000 0.4000 0.0000  plane waves:   12652
 k-point 85 :   0.0667 0.4000 0.0000  plane waves:   12665
 k-point 86 :   0.1333 0.4000 0.0000  plane waves:   12673
 k-point 87 :   0.2000 0.4000 0.0000  plane waves:   12665
 k-point 88 :   0.2667 0.4000 0.0000  plane waves:   12680
 k-point 89 :   0.3333 0.4000 0.0000  plane waves:   12664
 k-point 90 :   0.4000 0.4000 0.0000  plane waves:   12690
 k-point 91 :   0.4667 0.4000 0.0000  plane waves:   12680
 k-point 92 :  -0.4667 0.4000 0.0000  plane waves:   12680
 k-point 93 :  -0.4000 0.4000 0.0000  plane waves:   12690
 k-point 94 :  -0.3333 0.4000 0.0000  plane waves:   12664
 k-point 95 :  -0.2667 0.4000 0.0000  plane waves:   12680
 k-point 96 :  -0.2000 0.4000 0.0000  plane waves:   12665
 k-point 97 :  -0.1333 0.4000 0.0000  plane waves:   12673
 k-point 98 :  -0.0667 0.4000 0.0000  plane waves:   12665
 k-point 99 :   0.0000 0.4667 0.0000  plane waves:   12654
 k-point ** :   0.0667 0.4667 0.0000  plane waves:   12668
 k-point ** :   0.1333 0.4667 0.0000  plane waves:   12680
 k-point ** :   0.2000 0.4667 0.0000  plane waves:   12682
 k-point ** :   0.2667 0.4667 0.0000  plane waves:   12666
 k-point ** :   0.3333 0.4667 0.0000  plane waves:   12684
 k-point ** :   0.4000 0.4667 0.0000  plane waves:   12686
 k-point ** :   0.4667 0.4667 0.0000  plane waves:   12680
 k-point ** :  -0.4667 0.4667 0.0000  plane waves:   12680
 k-point ** :  -0.4000 0.4667 0.0000  plane waves:   12686
 k-point ** :  -0.3333 0.4667 0.0000  plane waves:   12684
 k-point ** :  -0.2667 0.4667 0.0000  plane waves:   12666
 k-point ** :  -0.2000 0.4667 0.0000  plane waves:   12682
 k-point ** :  -0.1333 0.4667 0.0000  plane waves:   12680
 k-point ** :  -0.0667 0.4667 0.0000  plane waves:   12668

 maximum and minimum number of plane-waves per node :       554      512

 maximum number of plane-waves:     12751
 maximum index in each direction: 
   IXMAX=    9   IYMAX=    8   IZMAX=   39
   IXMIN=   -9   IYMIN=   -9   IZMIN=  -39


 parallel 3D FFT for wavefunctions:
    minimum data exchange during FFTs selected (reduces bandwidth)
 parallel 3D FFT for charge:
    minimum data exchange during FFTs selected (reduces bandwidth)


 total amount of memory used by VASP MPI-rank0    63660. kBytes
=======================================================================

   base      :      30000. kBytes
   nonl-proj :      12679. kBytes
   fftplans  :       2678. kBytes
   grid      :       4349. kBytes
   one-center:          8. kBytes
   wavefun   :      13946. kBytes
 
     INWAV:  cpu time    0.0000: real time    0.0000
 Broyden mixing: mesh for mixing (old mesh)
   NGX = 17   NGY = 17   NGZ = 79
  (NGX  = 72   NGY  = 72   NGZ  =320)
  gives a total of  22831 points

 initial charge density was supplied:
 charge density of overlapping atoms calculated
 number of electron      20.0000000 magnetization 
 keeping initial charge density in first step


--------------------------------------------------------------------------------------------------------


 Maximum index for augmentation-charges         2204 (set IRDMAX)


--------------------------------------------------------------------------------------------------------


 First call to EWALD:  gamma=   0.245
 Maximum number of real-space cells 4x 4x 1
 Maximum number of reciprocal cells 2x 2x 7

    FEWALD:  cpu time    0.0011: real time    0.0017


--------------------------------------- Iteration      1(   1)  ---------------------------------------


    POTLOK:  cpu time    0.0581: real time    0.1757
    SETDIJ:  cpu time    0.0088: real time    0.0091
     EDDAV:  cpu time    2.1168: real time    2.1241
       DOS:  cpu time    0.0043: real time    0.0047
    --------------------------------------------
      LOOP:  cpu time    2.1881: real time    2.3136

 eigenvalue-minimisations  :  3164
 total energy-change (2. order) : 0.1442572E+03  (-0.6276545E+03)
 number of electron      20.0000000 magnetization 
 augmentation part       20.0000000 magnetization 

 Free energy of the ion-electron system (eV)
  ---------------------------------------------------
  alpha Z        PSCENC =         9.41011638
  Ewald energy   TEWEN  =      1136.78218267
  -Hartree energ DENC   =     -1738.48433256
  -exchange      EXHF   =         0.00000000
  -V(xc)+E(xc)   XCENC  =      -238.65587351
  PAW double counting   =       799.43158084     -524.17639913
  entropy T*S    EENTRO =        -0.01300688
  eigenvalues    EBANDS =        -2.46496323
  atomic energy  EATOM  =       702.42789710
  Solvation  Ediel_sol  =         0.00000000
  ---------------------------------------------------
  free energy    TOTEN  =       144.25720169 eV

  energy without entropy =      144.27020857  energy(sigma->0) =      144.26370513


--------------------------------------------------------------------------------------------------------




--------------------------------------- Iteration      1(   2)  ---------------------------------------


     EDDAV:  cpu time    3.0506: real time    3.0554
       DOS:  cpu time    0.0045: real time    0.0044
    --------------------------------------------
      LOOP:  cpu time    3.0551: real time    3.0598

 eigenvalue-minimisations  :  5310
 total energy-change (2. order) :-0.1397640E+03  (-0.1354777E+03)
 number of electron      20.0000000 magnetization 
 augmentation part       20.0000000 magnetization 

 Free energy of the ion-electron system (eV)
  ---------------------------------------------------
  alpha Z        PSCENC =         9.41011638
  Ewald energy   TEWEN  =      1136.78218267
  -Hartree energ DENC   =     -1738.48433256
  -exchange      EXHF   =         0.00000000
  -V(xc)+E(xc)   XCENC  =      -238.65587351
  PAW double counting   =       799.43158084     -524.17639913
  entropy T*S    EENTRO =        -0.00121087
  eigenvalues    EBANDS =      -142.24080204
  atomic energy  EATOM  =       702.42789710
  Solvation  Ediel_sol  =         0.00000000
  ---------------------------------------------------
  free energy    TOTEN  =         4.49315889 eV

  energy without entropy =        4.49436976  energy(sigma->0) =        4.49376433


--------------------------------------------------------------------------------------------------------




--------------------------------------- Iteration      1(   3)  ---------------------------------------


     EDDAV:  cpu time    2.4616: real time    2.4655
       DOS:  cpu time    0.0029: real time    0.0029
    --------------------------------------------
      LOOP:  cpu time    2.4645: real time    2.4684

 eigenvalue-minimisations  :  4028
 total energy-change (2. order) :-0.2048938E+02  (-0.2030730E+02)
 number of electron      20.0000000 magnetization 
 augmentation part       20.0000000 magnetization 

 Free energy of the ion-electron system (eV)
  ---------------------------------------------------
  alpha Z        PSCENC =         9.41011638
  Ewald energy   TEWEN  =      1136.78218267
  -Hartree energ DENC   =     -1738.48433256
  -exchange      EXHF   =         0.00000000
  -V(xc)+E(xc)   XCENC  =      -238.65587351
  PAW double counting   =       799.43158084     -524.17639913
  entropy T*S    EENTRO =        -0.00000000
  eigenvalues    EBANDS =      -162.73138975
  atomic energy  EATOM  =       702.42789710
  Solvation  Ediel_sol  =         0.00000000
  ---------------------------------------------------
  free energy    TOTEN  =       -15.99621795 eV

  energy without entropy =      -15.99621795  energy(sigma->0) =      -15.99621795


--------------------------------------------------------------------------------------------------------




--------------------------------------- Iteration      1(   4)  ---------------------------------------


     EDDAV:  cpu time    2.6738: real time    2.6779
       DOS:  cpu time    0.0030: real time    0.0030
    --------------------------------------------
      LOOP:  cpu time    2.6768: real time    2.6809

 eigenvalue-minimisations  :  4586
 total energy-change (2. order) :-0.7926851E+00  (-0.7906511E+00)
 number of electron      20.0000000 magnetization 
 augmentation part       20.0000000 magnetization 

 Free energy of the ion-electron system (eV)
  ---------------------------------------------------
  alpha Z        PSCENC =         9.41011638
  Ewald energy   TEWEN  =      1136.78218267
  -Hartree energ DENC   =     -1738.48433256
  -exchange      EXHF   =         0.00000000
  -V(xc)+E(xc)   XCENC  =      -238.65587351
  PAW double counting   =       799.43158084     -524.17639913
  entropy T*S    EENTRO =        -0.00000000
  eigenvalues    EBANDS =      -163.52407482
  atomic energy  EATOM  =       702.42789710
  Solvation  Ediel_sol  =         0.00000000
  ---------------------------------------------------
  free energy    TOTEN  =       -16.78890302 eV

  energy without entropy =      -16.78890302  energy(sigma->0) =      -16.78890302


--------------------------------------------------------------------------------------------------------




--------------------------------------- Iteration      1(   5)  ---------------------------------------


     EDDAV:  cpu time    2.4807: real time    2.4847
       DOS:  cpu time    0.0030: real time    0.0030
    CHARGE:  cpu time    0.1662: real time    0.1667
    MIXING:  cpu time    0.0017: real time    0.0018
    --------------------------------------------
      LOOP:  cpu time    2.6517: real time    2.6562

 eigenvalue-minimisations  :  4156
 total energy-change (2. order) :-0.1588347E-01  (-0.1586993E-01)
 number of electron      20.0000001 magnetization 
 augmentation part       -4.5204942 magnetization 

 Broyden mixing:
  rms(total) = 0.44676E+00    rms(broyden)= 0.44676E+00
  rms(prec ) = 0.48876E+00
  weight for this iteration     100.00

 Free energy of the ion-electron system (eV)
  ---------------------------------------------------
  alpha Z        PSCENC =         9.41011638
  Ewald energy   TEWEN  =      1136.78218267
  -Hartree energ DENC   =     -1738.48433256
  -exchange      EXHF   =         0.00000000
  -V(xc)+E(xc)   XCENC  =      -238.65587351
  PAW double counting   =       799.43158084     -524.17639913
  entropy T*S    EENTRO =        -0.00000000
  eigenvalues    EBANDS =      -163.53995830
  atomic energy  EATOM  =       702.42789710
  Solvation  Ediel_sol  =         0.00000000
  ---------------------------------------------------
  free energy    TOTEN  =       -16.80478650 eV

  energy without entropy =      -16.80478650  energy(sigma->0) =      -16.80478650


--------------------------------------------------------------------------------------------------------




--------------------------------------- Iteration      1(   6)  ---------------------------------------


    POTLOK:  cpu time    0.0377: real time    0.0378
    SETDIJ:  cpu time    0.0034: real time    0.0041
     EDDAV:  cpu time    2.4075: real time    2.4112
       DOS:  cpu time    0.0031: real time    0.0031
    CHARGE:  cpu time    0.1662: real time    0.1664
    MIXING:  cpu time    0.0012: real time    0.0012
    --------------------------------------------
      LOOP:  cpu time    2.6190: real time    2.6237

 eigenvalue-minimisations  :  3916
 total energy-change (2. order) : 0.5038193E+00  (-0.1304343E+00)
 number of electron      20.0000001 magnetization 
 augmentation part       -4.4873281 magnetization 

 Broyden mixing:
  rms(total) = 0.27325E+00    rms(broyden)= 0.27325E+00
  rms(prec ) = 0.28249E+00
  weight for this iteration     100.00

 eigenvalues of (default mixing * dielectric matrix)
  average eigenvalue GAMMA=   1.7592
  1.7592

 Free energy of the ion-electron system (eV)
  ---------------------------------------------------
  alpha Z        PSCENC =         9.41011638
  Ewald energy   TEWEN  =      1136.78218267
  -Hartree energ DENC   =     -1746.41194301
  -exchange      EXHF   =         0.00000000
  -V(xc)+E(xc)   XCENC  =      -238.16986468
  PAW double counting   =       921.63734610     -646.55851860
  entropy T*S    EENTRO =        -0.00000000
  eigenvalues    EBANDS =      -155.41818312
  atomic energy  EATOM  =       702.42789710
  Solvation  Ediel_sol  =         0.00000000
  ---------------------------------------------------
  free energy    TOTEN  =       -16.30096716 eV

  energy without entropy =      -16.30096716  energy(sigma->0) =      -16.30096716


--------------------------------------------------------------------------------------------------------




--------------------------------------- Iteration      1(   7)  ---------------------------------------


    POTLOK:  cpu time    0.0360: real time    0.0361
    SETDIJ:  cpu time    0.0031: real time    0.0031
     EDDAV:  cpu time    2.4378: real time    2.4417
       DOS:  cpu time    0.0031: real time    0.0031
    CHARGE:  cpu time    0.1655: real time    0.1656
    MIXING:  cpu time    0.0011: real time    0.0012
    --------------------------------------------
      LOOP:  cpu time    2.6465: real time    2.6507

 eigenvalue-minimisations  :  4074
 total energy-change (2. order) : 0.2607420E-01  (-0.3090543E-01)
 number of electron      20.0000001 magnetization 
 augmentation part       -4.4800403 magnetization 

 Broyden mixing:
  rms(total) = 0.10637E+00    rms(broyden)= 0.10637E+00
  rms(prec ) = 0.11172E+00
  weight for this iteration     100.00

 eigenvalues of (default mixing * dielectric matrix)
  average eigenvalue GAMMA=   1.7241
  1.3639  2.0843

 Free energy of the ion-electron system (eV)
  ---------------------------------------------------
  alpha Z        PSCENC =         9.41011638
  Ewald energy   TEWEN  =      1136.78218267
  -Hartree energ DENC   =     -1751.25694821
  -exchange      EXHF   =         0.00000000
  -V(xc)+E(xc)   XCENC  =      -237.85545463
  PAW double counting   =      1056.90590307     -781.95618899
  entropy T*S    EENTRO =        -0.00000000
  eigenvalues    EBANDS =      -150.73240034
  atomic energy  EATOM  =       702.42789710
  Solvation  Ediel_sol  =         0.00000000
  ---------------------------------------------------
  free energy    TOTEN  =       -16.27489296 eV

  energy without entropy =      -16.27489296  energy(sigma->0) =      -16.27489296


--------------------------------------------------------------------------------------------------------




--------------------------------------- Iteration      1(   8)  ---------------------------------------


    POTLOK:  cpu time    0.0359: real time    0.0360
    SETDIJ:  cpu time    0.0031: real time    0.0031
     EDDAV:  cpu time    2.6460: real time    2.6501
       DOS:  cpu time    0.0031: real time    0.0031
    CHARGE:  cpu time    0.1655: real time    0.1656
    MIXING:  cpu time    0.0012: real time    0.0012
    --------------------------------------------
      LOOP:  cpu time    2.8548: real time    2.8591

 eigenvalue-minimisations  :  4540
 total energy-change (2. order) : 0.9233941E-02  (-0.3696115E-02)
 number of electron      20.0000001 magnetization 
 augmentation part       -4.4842934 magnetization 

 Broyden mixing:
  rms(total) = 0.20303E-01    rms(broyden)= 0.20303E-01
  rms(prec ) = 0.27755E-01
  weight for this iteration     100.00

 eigenvalues of (default mixing * dielectric matrix)
  average eigenvalue GAMMA=   1.6902
  2.5121  1.2792  1.2792

 Free energy of the ion-electron system (eV)
  ---------------------------------------------------
  alpha Z        PSCENC =         9.41011638
  Ewald energy   TEWEN  =      1136.78218267
  -Hartree energ DENC   =     -1752.99088104
  -exchange      EXHF   =         0.00000000
  -V(xc)+E(xc)   XCENC  =      -237.77319065
  PAW double counting   =      1123.55339642     -848.64171793
  entropy T*S    EENTRO =        -0.00000000
  eigenvalues    EBANDS =      -149.03346197
  atomic energy  EATOM  =       702.42789710
  Solvation  Ediel_sol  =         0.00000000
  ---------------------------------------------------
  free energy    TOTEN  =       -16.26565902 eV

  energy without entropy =      -16.26565902  energy(sigma->0) =      -16.26565902


--------------------------------------------------------------------------------------------------------




--------------------------------------- Iteration      1(   9)  ---------------------------------------


    POTLOK:  cpu time    0.0360: real time    0.0362
    SETDIJ:  cpu time    0.0030: real time    0.0030
     EDDAV:  cpu time    2.5441: real time    2.5480
       DOS:  cpu time    0.0031: real time    0.0031
    CHARGE:  cpu time    0.1659: real time    0.1661
    MIXING:  cpu time    0.0012: real time    0.0012
    --------------------------------------------
      LOOP:  cpu time    2.7533: real time    2.7576

 eigenvalue-minimisations  :  4304
 total energy-change (2. order) : 0.3667189E-02  (-0.6511024E-03)
 number of electron      20.0000001 magnetization 
 augmentation part       -4.4824824 magnetization 

 Broyden mixing:
  rms(total) = 0.10019E-01    rms(broyden)= 0.10019E-01
  rms(prec ) = 0.15631E-01
  weight for this iteration     100.00

 eigenvalues of (default mixing * dielectric matrix)
  average eigenvalue GAMMA=   1.7030
  2.2223  2.2223  1.1838  1.1838

 Free energy of the ion-electron system (eV)
  ---------------------------------------------------
  alpha Z        PSCENC =         9.41011638
  Ewald energy   TEWEN  =      1136.78218267
  -Hartree energ DENC   =     -1754.92034575
  -exchange      EXHF   =         0.00000000
  -V(xc)+E(xc)   XCENC  =      -237.70131037
  PAW double counting   =      1140.96865344     -866.06814212
  entropy T*S    EENTRO =        -0.00000000
  eigenvalues    EBANDS =      -147.16104318
  atomic energy  EATOM  =       702.42789710
  Solvation  Ediel_sol  =         0.00000000
  ---------------------------------------------------
  free energy    TOTEN  =       -16.26199183 eV

  energy without entropy =      -16.26199183  energy(sigma->0) =      -16.26199183


--------------------------------------------------------------------------------------------------------




--------------------------------------- Iteration      1(  10)  ---------------------------------------


    POTLOK:  cpu time    0.0360: real time    0.0362
    SETDIJ:  cpu time    0.0031: real time    0.0031
     EDDAV:  cpu time    2.5995: real time    2.6035
       DOS:  cpu time    0.0031: real time    0.0030
    CHARGE:  cpu time    0.1665: real time    0.1666
    MIXING:  cpu time    0.0013: real time    0.0013
    --------------------------------------------
      LOOP:  cpu time    2.8095: real time    2.8137

 eigenvalue-minimisations  :  4370
 total energy-change (2. order) : 0.1299259E-02  (-0.1194566E-03)
 number of electron      20.0000001 magnetization 
 augmentation part       -4.4812252 magnetization 

 Broyden mixing:
  rms(total) = 0.49529E-02    rms(broyden)= 0.49529E-02
  rms(prec ) = 0.93394E-02
  weight for this iteration     100.00

 eigenvalues of (default mixing * dielectric matrix)
  average eigenvalue GAMMA=   1.8506
  3.3061  2.5924  1.2243  1.2243  0.9059

 Free energy of the ion-electron system (eV)
  ---------------------------------------------------
  alpha Z        PSCENC =         9.41011638
  Ewald energy   TEWEN  =      1136.78218267
  -Hartree energ DENC   =     -1756.18238763
  -exchange      EXHF   =         0.00000000
  -V(xc)+E(xc)   XCENC  =      -237.68927990
  PAW double counting   =      1131.22699072     -856.31708753
  entropy T*S    EENTRO =        -0.00000000
  eigenvalues    EBANDS =      -145.91912438
  atomic energy  EATOM  =       702.42789710
  Solvation  Ediel_sol  =         0.00000000
  ---------------------------------------------------
  free energy    TOTEN  =       -16.26069257 eV

  energy without entropy =      -16.26069257  energy(sigma->0) =      -16.26069257


--------------------------------------------------------------------------------------------------------




--------------------------------------- Iteration      1(  11)  ---------------------------------------


    POTLOK:  cpu time    0.0364: real time    0.0365
    SETDIJ:  cpu time    0.0032: real time    0.0036
     EDDAV:  cpu time    2.5452: real time    2.5489
       DOS:  cpu time    0.0031: real time    0.0031
    CHARGE:  cpu time    0.1658: real time    0.1659
    MIXING:  cpu time    0.0013: real time    0.0013
    --------------------------------------------
      LOOP:  cpu time    2.7549: real time    2.7593

 eigenvalue-minimisations  :  4304
 total energy-change (2. order) : 0.7584542E-03  (-0.1261438E-03)
 number of electron      20.0000001 magnetization 
 augmentation part       -4.4798597 magnetization 

 Broyden mixing:
  rms(total) = 0.32063E-02    rms(broyden)= 0.32063E-02
  rms(prec ) = 0.49878E-02
  weight for this iteration     100.00

 eigenvalues of (default mixing * dielectric matrix)
  average eigenvalue GAMMA=   1.8115
  3.3846  2.4050  1.8306  1.1819  1.1819  0.8848

 Free energy of the ion-electron system (eV)
  ---------------------------------------------------
  alpha Z        PSCENC =         9.41011638
  Ewald energy   TEWEN  =      1136.78218267
  -Hartree energ DENC   =     -1757.77220035
  -exchange      EXHF   =         0.00000000
  -V(xc)+E(xc)   XCENC  =      -237.65821340
  PAW double counting   =      1132.39714751     -857.48588990
  entropy T*S    EENTRO =        -0.00000000
  eigenvalues    EBANDS =      -144.36097413
  atomic energy  EATOM  =       702.42789710
  Solvation  Ediel_sol  =         0.00000000
  ---------------------------------------------------
  free energy    TOTEN  =       -16.25993412 eV

  energy without entropy =      -16.25993412  energy(sigma->0) =      -16.25993412


--------------------------------------------------------------------------------------------------------




--------------------------------------- Iteration      1(  12)  ---------------------------------------


    POTLOK:  cpu time    0.0363: real time    0.0364
    SETDIJ:  cpu time    0.0030: real time    0.0031
     EDDAV:  cpu time    2.2623: real time    2.2658
       DOS:  cpu time    0.0031: real time    0.0031
    CHARGE:  cpu time    0.1683: real time    0.1684
    MIXING:  cpu time    0.0013: real time    0.0013
    --------------------------------------------
      LOOP:  cpu time    2.4743: real time    2.4780

 eigenvalue-minimisations  :  3650
 total energy-change (2. order) :-0.7821696E-03  (-0.2652612E-04)
 number of electron      20.0000001 magnetization 
 augmentation part       -4.4792389 magnetization 

 Broyden mixing:
  rms(total) = 0.17041E-02    rms(broyden)= 0.17041E-02
  rms(prec ) = 0.27601E-02
  weight for this iteration     100.00

 eigenvalues of (default mixing * dielectric matrix)
  average eigenvalue GAMMA=   2.0586
  4.6012  3.0523  2.4972  1.1913  1.1913  1.0272  0.8497

 Free energy of the ion-electron system (eV)
  ---------------------------------------------------
  alpha Z        PSCENC =         9.41011638
  Ewald energy   TEWEN  =      1136.78218267
  -Hartree energ DENC   =     -1758.40299492
  -exchange      EXHF   =         0.00000000
  -V(xc)+E(xc)   XCENC  =      -237.64881418
  PAW double counting   =      1133.93926372     -859.03028428
  entropy T*S    EENTRO =        -0.00000000
  eigenvalues    EBANDS =      -143.73808277
  atomic energy  EATOM  =       702.42789710
  Solvation  Ediel_sol  =         0.00000000
  ---------------------------------------------------
  free energy    TOTEN  =       -16.26071629 eV

  energy without entropy =      -16.26071629  energy(sigma->0) =      -16.26071629


--------------------------------------------------------------------------------------------------------




--------------------------------------- Iteration      1(  13)  ---------------------------------------


    POTLOK:  cpu time    0.0367: real time    0.0367
    SETDIJ:  cpu time    0.0030: real time    0.0031
     EDDAV:  cpu time    2.2827: real time    2.2861
       DOS:  cpu time    0.0031: real time    0.0031
    CHARGE:  cpu time    0.1716: real time    0.1717
    MIXING:  cpu time    0.0013: real time    0.0013
    --------------------------------------------
      LOOP:  cpu time    2.4984: real time    2.5020

 eigenvalue-minimisations  :  3704
 total energy-change (2. order) :-0.4624861E-03  (-0.7986697E-05)
 number of electron      20.0000001 magnetization 
 augmentation part       -4.4790125 magnetization 

 Broyden mixing:
  rms(total) = 0.10595E-02    rms(broyden)= 0.10595E-02
  rms(prec ) = 0.14562E-02
  weight for this iteration     100.00

 eigenvalues of (default mixing * dielectric matrix)
  average eigenvalue GAMMA=   2.2297
  5.6177  3.2985  2.5082  2.1320  1.1508  1.1508  1.0716  0.9079

 Free energy of the ion-electron system (eV)
  ---------------------------------------------------
  alpha Z        PSCENC =         9.41011638
  Ewald energy   TEWEN  =      1136.78218267
  -Hartree energ DENC   =     -1758.83683915
  -exchange      EXHF   =         0.00000000
  -V(xc)+E(xc)   XCENC  =      -237.64699103
  PAW double counting   =      1132.93261248     -858.02263617
  entropy T*S    EENTRO =        -0.00000000
  eigenvalues    EBANDS =      -143.30752104
  atomic energy  EATOM  =       702.42789710
  Solvation  Ediel_sol  =         0.00000000
  ---------------------------------------------------
  free energy    TOTEN  =       -16.26117877 eV

  energy without entropy =      -16.26117877  energy(sigma->0) =      -16.26117877


--------------------------------------------------------------------------------------------------------




--------------------------------------- Iteration      1(  14)  ---------------------------------------


    POTLOK:  cpu time    0.0376: real time    0.0377
    SETDIJ:  cpu time    0.0030: real time    0.0030
     EDDAV:  cpu time    2.3556: real time    2.3591
       DOS:  cpu time    0.0031: real time    0.0031
    CHARGE:  cpu time    0.1658: real time    0.1659
    MIXING:  cpu time    0.0014: real time    0.0014
    --------------------------------------------
      LOOP:  cpu time    2.5665: real time    2.5702

 eigenvalue-minimisations  :  3878
 total energy-change (2. order) :-0.2693531E-03  (-0.3971152E-05)
 number of electron      20.0000001 magnetization 
 augmentation part       -4.4789755 magnetization 

 Broyden mixing:
  rms(total) = 0.38059E-03    rms(broyden)= 0.38059E-03
  rms(prec ) = 0.60505E-03
  weight for this iteration     100.00

 eigenvalues of (default mixing * dielectric matrix)
  average eigenvalue GAMMA=   2.2418
  6.7404  3.0851  2.5262  2.5262  1.1720  1.1720  1.0350  0.9595  0.9595

 Free energy of the ion-electron system (eV)
  ---------------------------------------------------
  alpha Z        PSCENC =         9.41011638
  Ewald energy   TEWEN  =      1136.78218267
  -Hartree energ DENC   =     -1759.04684516
  -exchange      EXHF   =         0.00000000
  -V(xc)+E(xc)   XCENC  =      -237.64681409
  PAW double counting   =      1133.16959155     -858.25915370
  entropy T*S    EENTRO =        -0.00000000
  eigenvalues    EBANDS =      -143.09842286
  atomic energy  EATOM  =       702.42789710
  Solvation  Ediel_sol  =         0.00000000
  ---------------------------------------------------
  free energy    TOTEN  =       -16.26144813 eV

  energy without entropy =      -16.26144813  energy(sigma->0) =      -16.26144813


--------------------------------------------------------------------------------------------------------




--------------------------------------- Iteration      1(  15)  ---------------------------------------


    POTLOK:  cpu time    0.0381: real time    0.0383
    SETDIJ:  cpu time    0.0030: real time    0.0030
     EDDAV:  cpu time    2.3554: real time    2.3589
       DOS:  cpu time    0.0031: real time    0.0031
    CHARGE:  cpu time    0.1659: real time    0.1660
    MIXING:  cpu time    0.0014: real time    0.0014
    --------------------------------------------
      LOOP:  cpu time    2.5670: real time    2.5708

 eigenvalue-minimisations  :  3870
 total energy-change (2. order) :-0.5760310E-04  (-0.1914846E-06)
 number of electron      20.0000001 magnetization 
 augmentation part       -4.4789912 magnetization 

 Broyden mixing:
  rms(total) = 0.30010E-03    rms(broyden)= 0.30010E-03
  rms(prec ) = 0.48199E-03
  weight for this iteration     100.00

 eigenvalues of (default mixing * dielectric matrix)
  average eigenvalue GAMMA=   2.3465
  6.5514  4.2181  2.6887  2.6887  1.9703  1.1377  1.1377  1.1993  0.9367  0.9367

 Free energy of the ion-electron system (eV)
  ---------------------------------------------------
  alpha Z        PSCENC =         9.41011638
  Ewald energy   TEWEN  =      1136.78218267
  -Hartree energ DENC   =     -1759.06298074
  -exchange      EXHF   =         0.00000000
  -V(xc)+E(xc)   XCENC  =      -237.64720445
  PAW double counting   =      1132.96844073     -858.05784694
  entropy T*S    EENTRO =        -0.00000000
  eigenvalues    EBANDS =      -143.08211048
  atomic energy  EATOM  =       702.42789710
  Solvation  Ediel_sol  =         0.00000000
  ---------------------------------------------------
  free energy    TOTEN  =       -16.26150573 eV

  energy without entropy =      -16.26150573  energy(sigma->0) =      -16.26150573


--------------------------------------------------------------------------------------------------------




--------------------------------------- Iteration      1(  16)  ---------------------------------------


    POTLOK:  cpu time    0.0365: real time    0.0366
    SETDIJ:  cpu time    0.0030: real time    0.0030
     EDDAV:  cpu time    2.2071: real time    2.2103
       DOS:  cpu time    0.0031: real time    0.0031
    CHARGE:  cpu time    0.1669: real time    0.1670
    MIXING:  cpu time    0.0015: real time    0.0015
    --------------------------------------------
      LOOP:  cpu time    2.4181: real time    2.4216

 eigenvalue-minimisations  :  3522
 total energy-change (2. order) :-0.4645193E-04  (-0.8237943E-06)
 number of electron      20.0000001 magnetization 
 augmentation part       -4.4790078 magnetization 

 Broyden mixing:
  rms(total) = 0.12101E-03    rms(broyden)= 0.12101E-03
  rms(prec ) = 0.22343E-03
  weight for this iteration     100.00

 eigenvalues of (default mixing * dielectric matrix)
  average eigenvalue GAMMA=   2.2787
  6.8187  4.4772  2.6533  2.6533  2.2478  1.1491  1.1491  1.1804  0.9350  0.9350
  0.8671

 Free energy of the ion-electron system (eV)
  ---------------------------------------------------
  alpha Z        PSCENC =         9.41011638
  Ewald energy   TEWEN  =      1136.78218267
  -Hartree energ DENC   =     -1759.11387429
  -exchange      EXHF   =         0.00000000
  -V(xc)+E(xc)   XCENC  =      -237.64730050
  PAW double counting   =      1132.84569588     -857.93509718
  entropy T*S    EENTRO =        -0.00000000
  eigenvalues    EBANDS =      -143.03117223
  atomic energy  EATOM  =       702.42789710
  Solvation  Ediel_sol  =         0.00000000
  ---------------------------------------------------
  free energy    TOTEN  =       -16.26155218 eV

  energy without entropy =      -16.26155218  energy(sigma->0) =      -16.26155218


--------------------------------------------------------------------------------------------------------




--------------------------------------- Iteration      1(  17)  ---------------------------------------


    POTLOK:  cpu time    0.0367: real time    0.0369
    SETDIJ:  cpu time    0.0032: real time    0.0032
     EDDAV:  cpu time    2.0550: real time    2.0581
       DOS:  cpu time    0.0030: real time    0.0030
    CHARGE:  cpu time    0.1659: real time    0.1660
    MIXING:  cpu time    0.0016: real time    0.0016
    --------------------------------------------
[...]
      3      -8.6856      2.00000
      4      -8.5398      2.00000
      5      -6.3679      2.00000
      6      -5.5196      2.00000
      7      -5.0630      2.00000
      8      -4.3728      2.00000
      9      -3.9704      2.00000
     10      -3.3950      2.00000
     11       0.4869      0.00000
     12       1.2930      0.00000
     13       1.5093      0.00000
     14       2.1785      0.00000

 k-point    95 :      -0.2667    0.4000    0.0000
  band No.  band energies     occupation 
      1     -14.5798      2.00000
      2     -14.3313      2.00000
      3      -8.8626      2.00000
      4      -8.6433      2.00000
      5      -6.0558      2.00000
      6      -5.1253      2.00000
      7      -4.8361      2.00000
      8      -4.1262      2.00000
      9      -3.8723      2.00000
     10      -3.1112      2.00000
     11       0.0867      0.00000
     12       1.0347      0.00000
     13       1.1232      0.00000
     14       1.5416      0.00000

 k-point    96 :      -0.2000    0.4000    0.0000
  band No.  band energies     occupation 
      1     -14.6475      2.00000
      2     -14.3530      2.00000
      3      -9.0239      2.00000
      4      -8.7448      2.00000
      5      -5.6255      2.00000
      6      -4.8512      2.00000
      7      -4.5621      2.00000
      8      -3.9971      2.00000
      9      -3.5120      2.00000
     10      -2.7457      2.00000
     11      -0.3724      0.00000
     12       0.5300      0.00000
     13       0.6875      0.00000
     14       1.1791      0.00000

 k-point    97 :      -0.1333    0.4000    0.0000
  band No.  band energies     occupation 
      1     -14.7017      2.00000
      2     -14.3748      2.00000
      3      -9.1491      2.00000
      4      -8.8281      2.00000
      5      -5.1175      2.00000
      6      -4.7937      2.00000
      7      -4.1509      2.00000
      8      -3.9529      2.00000
      9      -2.9633      2.00000
     10      -2.5296      2.00000
     11      -0.6332      0.00000
     12      -0.1824      0.00000
     13       0.4732      0.00000
     14       0.7492      0.00000

 k-point    98 :      -0.0667    0.4000    0.0000
  band No.  band energies     occupation 
      1     -14.7366      2.00000
      2     -14.3904      2.00000
      3      -9.2276      2.00000
      4      -8.8822      2.00000
      5      -4.7979      2.00000
      6      -4.5969      2.00000
      7      -3.9729      2.00000
      8      -3.7504      2.00000
      9      -2.6912      2.00000
     10      -2.4102      2.00000
     11      -0.7647      0.00000
     12      -0.3925      0.00000
     13       0.2122      0.00000
     14       0.3570      0.00000

 k-point    99 :       0.0000    0.4667    0.0000
  band No.  band energies     occupation 
      1     -14.6084      2.00000
      2     -14.4872      2.00000
      3      -9.2374      2.00000
      4      -9.1160      2.00000
      5      -4.5659      2.00000
      6      -4.3536      2.00000
      7      -3.8668      2.00000
      8      -3.6776      2.00000
      9      -2.5997      2.00000
     10      -2.2701      2.00000
     11      -0.8993      0.00000
     12      -0.4752      0.00000
     13      -0.0673      0.00000
     14       0.1258      0.00000

 k-point   100 :       0.0667    0.4667    0.0000
  band No.  band energies     occupation 
      1     -14.5985      2.00000
      2     -14.4796      2.00000
      3      -9.2101      2.00000
      4      -9.0915      2.00000
      5      -4.5793      2.00000
      6      -4.4568      2.00000
      7      -4.0220      2.00000
      8      -3.8829      2.00000
      9      -2.5202      2.00000
     10      -2.4195      2.00000
     11      -0.8029      0.00000
     12      -0.6931      0.00000
     13       0.2753      0.00000
     14       0.5770      0.00000

 k-point   101 :       0.1333    0.4667    0.0000
  band No.  band energies     occupation 
      1     -14.5701      2.00000
      2     -14.4578      2.00000
      3      -9.1293      2.00000
      4      -9.0192      2.00000
      5      -4.8487      2.00000
      6      -4.6814      2.00000
      7      -4.2535      2.00000
      8      -4.1500      2.00000
      9      -2.8680      2.00000
     10      -2.6704      2.00000
     11      -0.5596      0.00000
     12      -0.3318      0.00000
     13       0.7687      0.00000
     14       0.8613      0.00000

 k-point   102 :       0.2000    0.4667    0.0000
  band No.  band energies     occupation 
      1     -14.5268      2.00000
      2     -14.4257      2.00000
      3      -8.9991      2.00000
      4      -8.9035      2.00000
      5      -5.3513      2.00000
      6      -5.0377      2.00000
      7      -4.4529      2.00000
      8      -4.2279      2.00000
      9      -3.3692      2.00000
     10      -3.0794      2.00000
     11      -0.0538      0.00000
     12       0.3021      0.00000
     13       0.9883      0.00000
     14       1.2136      0.00000

 k-point   103 :       0.2667    0.4667    0.0000
  band No.  band energies     occupation 
      1     -14.4744      2.00000
      2     -14.3892      2.00000
      3      -8.8279      2.00000
      4      -8.7535      2.00000
      5      -5.8189      2.00000
      6      -5.4869      2.00000
      7      -4.6426      2.00000
      8      -4.3894      2.00000
      9      -3.7087      2.00000
     10      -3.4421      2.00000
     11       0.4495      0.00000
     12       0.8050      0.00000
     13       1.3760      0.00000
     14       1.6277      0.00000

 k-point   104 :       0.3333    0.4667    0.0000
  band No.  band energies     occupation 
      1     -14.4206      2.00000
      2     -14.3557      2.00000
      3      -8.6327      2.00000
      4      -8.5851      2.00000
      5      -6.2014      2.00000
      6      -5.8992      2.00000
      7      -4.9282      2.00000
      8      -4.6781      2.00000
      9      -3.8229      2.00000
     10      -3.6286      2.00000
     11       0.7962      0.00000
     12       1.0679      0.00000
     13       1.9037      0.00000
     14       2.1833      0.00000

 k-point   105 :       0.4000    0.4667    0.0000
  band No.  band energies     occupation 
      1     -14.3735      2.00000
      2     -14.3328      2.00000
      3      -8.4470      2.00000
      4      -8.4264      2.00000
      5      -6.4641      2.00000
      6      -6.2427      2.00000
      7      -5.1754      2.00000
      8      -4.9889      2.00000
      9      -3.8211      2.00000
     10      -3.7035      2.00000
     11       1.0328      0.00000
     12       1.2019      0.00000
     13       2.3697      0.00000
     14       2.5993      0.00000

 k-point   106 :       0.4667    0.4667    0.0000
  band No.  band energies     occupation 
      1     -14.3407      2.00000
      2     -14.3267      2.00000
      3      -8.3267      2.00000
      4      -8.3228      2.00000
      5      -6.5672      2.00000
      6      -6.4837      2.00000
      7      -5.2789      2.00000
      8      -5.2096      2.00000
      9      -3.7858      2.00000
     10      -3.7462      2.00000
     11       1.1854      0.00000
     12       1.2429      0.00000
     13       2.6285      0.00000
     14       2.7465      0.00000

 k-point   107 :      -0.4667    0.4667    0.0000
  band No.  band energies     occupation 
      1     -14.3407      2.00000
      2     -14.3267      2.00000
      3      -8.3267      2.00000
      4      -8.3228      2.00000
      5      -6.5672      2.00000
      6      -6.4837      2.00000
      7      -5.2789      2.00000
      8      -5.2096      2.00000
      9      -3.7858      2.00000
     10      -3.7462      2.00000
     11       1.1854      0.00000
     12       1.2429      0.00000
     13       2.6285      0.00000
     14       2.7465      0.00000

 k-point   108 :      -0.4000    0.4667    0.0000
  band No.  band energies     occupation 
      1     -14.3735      2.00000
      2     -14.3328      2.00000
      3      -8.4470      2.00000
      4      -8.4264      2.00000
      5      -6.4641      2.00000
      6      -6.2427      2.00000
      7      -5.1754      2.00000
      8      -4.9889      2.00000
      9      -3.8211      2.00000
     10      -3.7035      2.00000
     11       1.0328      0.00000
     12       1.2019      0.00000
     13       2.3697      0.00000
     14       2.5993      0.00000

 k-point   109 :      -0.3333    0.4667    0.0000
  band No.  band energies     occupation 
      1     -14.4206      2.00000
      2     -14.3557      2.00000
      3      -8.6327      2.00000
      4      -8.5851      2.00000
      5      -6.2014      2.00000
      6      -5.8992      2.00000
      7      -4.9282      2.00000
      8      -4.6781      2.00000
      9      -3.8229      2.00000
     10      -3.6286      2.00000
     11       0.7962      0.00000
     12       1.0679      0.00000
     13       1.9037      0.00000
     14       2.1833      0.00000

 k-point   110 :      -0.2667    0.4667    0.0000
  band No.  band energies     occupation 
      1     -14.4744      2.00000
      2     -14.3892      2.00000
      3      -8.8279      2.00000
      4      -8.7535      2.00000
      5      -5.8189      2.00000
      6      -5.4869      2.00000
      7      -4.6426      2.00000
      8      -4.3894      2.00000
      9      -3.7087      2.00000
     10      -3.4421      2.00000
     11       0.4495      0.00000
     12       0.8050      0.00000
     13       1.3760      0.00000
     14       1.6277      0.00000

 k-point   111 :      -0.2000    0.4667    0.0000
  band No.  band energies     occupation 
      1     -14.5268      2.00000
      2     -14.4257      2.00000
      3      -8.9991      2.00000
      4      -8.9035      2.00000
      5      -5.3513      2.00000
      6      -5.0377      2.00000
      7      -4.4529      2.00000
      8      -4.2279      2.00000
      9      -3.3692      2.00000
     10      -3.0794      2.00000
     11      -0.0538      0.00000
     12       0.3021      0.00000
     13       0.9883      0.00000
     14       1.2136      0.00000

 k-point   112 :      -0.1333    0.4667    0.0000
  band No.  band energies     occupation 
      1     -14.5701      2.00000
      2     -14.4578      2.00000
      3      -9.1293      2.00000
      4      -9.0192      2.00000
      5      -4.8487      2.00000
      6      -4.6814      2.00000
      7      -4.2535      2.00000
      8      -4.1500      2.00000
      9      -2.8680      2.00000
     10      -2.6704      2.00000
     11      -0.5596      0.00000
     12      -0.3318      0.00000
     13       0.7687      0.00000
     14       0.8613      0.00000

 k-point   113 :      -0.0667    0.4667    0.0000
  band No.  band energies     occupation 
      1     -14.5985      2.00000
      2     -14.4796      2.00000
      3      -9.2101      2.00000
      4      -9.0915      2.00000
      5      -4.5793      2.00000
      6      -4.4568      2.00000
      7      -4.0220      2.00000
      8      -3.8829      2.00000
      9      -2.5202      2.00000
     10      -2.4195      2.00000
     11      -0.8029      0.00000
     12      -0.6931      0.00000
     13       0.2753      0.00000
     14       0.5770      0.00000


--------------------------------------------------------------------------------------------------------


 soft charge-density along one line, spin component           1
         0         1         2         3         4         5         6         7         8         9
 total charge-density along one line
 
 pseudopotential strength for first ion, spin component:           1
 30.104 -23.447   0.000  -0.089   0.035   0.000  -0.141   0.056
-23.447  28.124  -0.000   0.051  -0.020  -0.000   0.082  -0.032
  0.000  -0.000   6.335   0.000  -0.000   9.800   0.000  -0.000
 -0.089   0.051   0.000   6.332   0.002   0.000   9.796   0.003
  0.035  -0.020  -0.000   0.002   6.335  -0.000   0.003   9.800
  0.000  -0.000   9.800   0.000  -0.000  15.232   0.000  -0.000
 -0.141   0.082   0.000   9.796   0.003   0.000  15.225   0.004
  0.056  -0.032  -0.000   0.003   9.800  -0.000   0.004  15.232
 -0.000   0.000   0.007   0.000   0.000   0.011   0.000   0.000
  0.000  -0.000  -0.020   0.000   0.000  -0.031   0.000   0.000
 -0.003   0.004  -0.000  -0.023  -0.004  -0.000  -0.035  -0.007
  0.003  -0.002   0.000   0.008  -0.020   0.000   0.013  -0.031
  0.000   0.000  -0.000  -0.000   0.009  -0.000  -0.000   0.013
 total augmentation occupancy for first ion, spin component:           1
  2.025  -0.015  -0.000   0.237  -0.091   0.000  -0.042   0.017   0.000   0.000   0.022   0.002   0.001
 -0.015   0.009   0.000  -0.073   0.027  -0.000   0.019  -0.006   0.000   0.000  -0.001   0.001  -0.001
 -0.000   0.000   1.488   0.000   0.000  -0.399  -0.000  -0.000   0.126  -0.043  -0.000  -0.000   0.000
  0.237  -0.073   0.000   1.849   0.005  -0.000  -0.486  -0.016  -0.000  -0.000  -0.269  -0.021  -0.000
 -0.091   0.027   0.000   0.005   1.459  -0.000  -0.017  -0.383   0.000  -0.000  -0.081  -0.046  -0.008
  0.000  -0.000  -0.399  -0.000  -0.000   0.115   0.000   0.000  -0.033   0.012   0.000   0.000  -0.000
 -0.042   0.019  -0.000  -0.486  -0.017   0.000   0.140   0.008   0.000   0.000   0.074   0.006   0.000
  0.017  -0.006  -0.000  -0.016  -0.383   0.000   0.008   0.109  -0.000   0.000   0.021   0.012   0.003
  0.000   0.000   0.126  -0.000   0.000  -0.033   0.000  -0.000   0.074   0.001  -0.000   0.000   0.000
  0.000   0.000  -0.043  -0.000  -0.000   0.012   0.000   0.000   0.001   0.021   0.000   0.000  -0.000
  0.022  -0.001  -0.000  -0.269  -0.081   0.000   0.074   0.021  -0.000   0.000   0.077   0.006   0.002
  0.002   0.001  -0.000  -0.021  -0.046   0.000   0.006   0.012   0.000   0.000   0.006   0.022   0.001
  0.001  -0.001   0.000  -0.000  -0.008  -0.000   0.000   0.003   0.000  -0.000   0.002   0.001   0.016


------------------------ aborting loop because EDIFF is reached ----------------------------------------


    CHARGE:  cpu time    0.1672: real time    0.1673
    FORLOC:  cpu time    0.0017: real time    0.0017
    FORNL :  cpu time    0.3069: real time    0.3071
    STRESS:  cpu time    0.5966: real time    0.5974
    FORCOR:  cpu time    0.0384: real time    0.0385
    FORHAR:  cpu time    0.0099: real time    0.0099
    MIXING:  cpu time    0.0009: real time    0.0009
    OFIELD:  cpu time    0.0000: real time    0.0000

  FORCE on cell =-STRESS in cart. coord.  units (eV):
  Direction    XX          YY          ZZ          XY          YZ          ZX
  --------------------------------------------------------------------------------------
  Alpha Z     9.41012     9.41012     9.41012
  Ewald    1588.11038  1594.60490 -2044.41878     0.00000    -0.00000    -0.00021
  Hartree  1711.31720  1713.07785 -1663.91586     0.00000    -0.00000    -0.00004
  E(xc)     -77.58921   -77.58913   -78.83344    -0.00000    -0.00000     0.00000
  Local   -3552.06186 -3559.57818  3453.71105    -0.00000     0.00000     0.00023
  n-local   162.19110   162.45372   167.23511     0.00000     0.00000    -0.00002
  augment   -31.87250   -31.78894   -32.82478    -0.00000     0.00000    -0.00000
  Kinetic   190.28870   188.91766   189.63517    -0.00000     0.00000     0.00003
  Fock        0.00000     0.00000     0.00000     0.00000     0.00000     0.00000
  -------------------------------------------------------------------------------------
  Total      -0.20607    -0.49200    -0.00141     0.00000     0.00000    -0.00001
  in kB      -0.86889    -2.07448    -0.00597     0.00000     0.00000    -0.00002
  external pressure =       -0.98 kB  Pullay stress =        0.00 kB


 VOLUME and BASIS-vectors are now :
 -----------------------------------------------------------------------------
  energy-cutoff  :      600.00
  volume of cell :      379.99
      direct lattice vectors                 reciprocal lattice vectors
     4.382356765  0.000000000  0.000000000     0.228187720  0.000000000  0.000000000
     0.000000000  4.335402636  0.000000000     0.000000000  0.230659084  0.000000000
     0.000000000  0.000000000 20.000000000     0.000000000  0.000000000  0.050000000

  length of vectors
     4.382356765  4.335402636 20.000000000     0.228187720  0.230659084  0.050000000


 FORCES acting on ions
    electron-ion (+dipol)            ewald-force                    non-local-force                 convergence-correction
 -----------------------------------------------------------------------------------------------
   0.429E+01 0.124E-05 -.143E+03   -.583E+01 -.172E-05 0.147E+03   0.154E+01 0.439E-06 -.381E+01   0.790E-05 0.162E-07 0.128E-02
   0.429E+01 0.162E-05 0.143E+03   -.583E+01 -.222E-05 -.147E+03   0.154E+01 0.553E-06 0.381E+01   0.105E-04 0.474E-08 -.125E-02
   -.538E+01 -.143E-05 -.204E+03   0.583E+01 0.163E-05 0.207E+03   -.458E+00 -.143E-06 -.205E+01   0.733E-03 -.696E-07 0.424E-02
   -.538E+01 -.214E-05 0.204E+03   0.583E+01 0.230E-05 -.207E+03   -.458E+00 -.156E-06 0.205E+01   0.733E-03 -.160E-07 -.416E-02
 -----------------------------------------------------------------------------------------------
   -.217E+01 -.703E-06 -.156E-03   0.622E-14 -.481E-16 0.000E+00   0.217E+01 0.692E-06 0.405E-04   0.148E-02 -.647E-07 0.115E-03
 
 
 POSITION                                       TOTAL-FORCE (eV/Angst)
 -----------------------------------------------------------------------------------
      2.55428      3.25155     11.37131         0.000325     -0.000000      0.000162
      0.36310      1.08385      8.62869         0.000326     -0.000000     -0.000253
      0.13694      1.08385     11.34072        -0.000327      0.000000     -0.000262
      2.32812      3.25155      8.65927        -0.000324      0.000000      0.000352
 -----------------------------------------------------------------------------------
    total drift:                                0.000039     -0.000000     -0.000001


--------------------------------------------------------------------------------------------------------



  FREE ENERGIE OF THE ION-ELECTRON SYSTEM (eV)
  ---------------------------------------------------
  free  energy   TOTEN  =       -16.26194469 eV

  energy  without entropy=      -16.26194469  energy(sigma->0) =      -16.26194469
 
 d Force = 0.1197912E-05[ 0.711E-06, 0.169E-05]  d Energy = 0.1517300E-05-0.319E-06
 d Force =-0.1178301E+00[-0.118E+00,-0.118E+00]  d Ewald  =-0.1178301E+00 0.251E-08


--------------------------------------------------------------------------------------------------------


    POTLOK:  cpu time    0.0391: real time    0.0392


--------------------------------------------------------------------------------------------------------




--------------------------------------------------------------------------------------------------------


  
 reached required accuracy - stopping structural energy minimisation
 writing wavefunctions
     LOOP+:  cpu time    9.2209: real time    9.6294
    4ORBIT:  cpu time    0.0000: real time    0.0000

 total amount of memory used by VASP MPI-rank0    63660. kBytes
=======================================================================

   base      :      30000. kBytes
   nonl-proj :      12679. kBytes
   fftplans  :       2678. kBytes
   grid      :       4349. kBytes
   one-center:          8. kBytes
   wavefun   :      13946. kBytes
 
  
  
 General timing and accounting informations for this job:
 ========================================================
  
                  Total CPU time used (sec):      187.529
                            User time (sec):      186.631
                          System time (sec):        0.899
                         Elapsed time (sec):      198.986
  
                   Maximum memory used (kb):      215048.
                   Average memory used (kb):           0.
  
                          Minor page faults:       152537
                          Major page faults:          117
                 Voluntary context switches:        12668
