 vasp.5.4.4.18Apr17-6-g9f103f2a35 (build Sep 16 2021 13:51:27) complex          
  
 executed on             LinuxIFC date 2023.03.16  12:57:39
 running on   24 total cores
 distrk:  each k-point on   24 cores,    1 groups
 distr:  one band on NCORES_PER_BAND=  24 cores,    1 groups


--------------------------------------------------------------------------------------------------------


 INCAR:
 POTCAR:    PAW_PBE Sn 08Apr2002                  
 POTCAR:    PAW_PBE Se 06Sep2000                  

 ----------------------------------------------------------------------------- 
|                                                                             |
|           W    W    AA    RRRRR   N    N  II  N    N   GGGG   !!!           |
|           W    W   A  A   R    R  NN   N  II  NN   N  G    G  !!!           |
|           W    W  A    A  R    R  N N  N  II  N N  N  G       !!!           |
|           W WW W  AAAAAA  RRRRR   N  N N  II  N  N N  G  GGG   !            |
|           WW  WW  A    A  R   R   N   NN  II  N   NN  G    G                |
|           W    W  A    A  R    R  N    N  II  N    N   GGGG   !!!           |
|                                                                             |
|      For optimal performance we recommend to set                            |
|        NCORE= 4 - approx SQRT( number of cores)                             |
|      NCORE specifies how many cores store one orbital (NPAR=cpu/NCORE).     |
|      This setting can  greatly improve the performance of VASP for DFT.     |
|      The default,   NCORE=1            might be grossly inefficient         |
|      on modern multi-core architectures or massively parallel machines.     |
|      Do your own testing !!!!                                               |
|      Unfortunately you need to use the default for GW and RPA calculations. |
|      (for HF NCORE is supported but not extensively tested yet)             |
|                                                                             |
 ----------------------------------------------------------------------------- 

 POTCAR:    PAW_PBE Sn 08Apr2002                  
   VRHFIN =Sn: s2p2                                                             
   LEXCH  = PE                                                                  
   EATOM  =    94.0860 eV,    6.9151 Ry                                         
                                                                                
   TITEL  = PAW_PBE Sn 08Apr2002                                                
   LULTRA =        F    use ultrasoft PP ?                                      
   IUNSCR =        1    unscreen: 0-lin 1-nonlin 2-no                           
   RPACOR =    2.000    partial core radius                                     
   POMASS =  118.710; ZVAL   =    4.000    mass and valenz                      
   RCORE  =    3.000    outmost cutoff radius                                   
   RWIGS  =    2.960; RWIGS  =    1.566    wigner-seitz radius (au A)           
   ENMAX  =  103.236; ENMIN  =   77.427 eV                                      
   ICORE  =        3    local potential                                         
   LCOR   =        T    correct aug charges                                     
   LPAW   =        T    paw PP                                                  
   EAUG   =  263.585                                                            
   DEXC   =    0.000                                                            
   RMAX   =    3.078    core radius for proj-oper                               
   RAUG   =    1.300    factor for augmentation sphere                          
   RDEP   =    3.022    radius for radial grids                                 
   RDEPT  =    2.655    core radius for aug-charge                              
                                                                                
   Atomic configuration                                                         
   13 entries                                                                   
     n  l   j            E        occ.                                          
     1  0  0.50    -29007.2859   2.0000                                         
     2  0  0.50     -4378.8056   2.0000                                         
     2  1  1.50     -3930.4293   6.0000                                         
     3  0  0.50      -845.0264   2.0000                                         
     3  1  1.50      -698.5725   6.0000                                         
     3  2  2.50      -473.2839  10.0000                                         
     4  0  0.50      -133.9036   2.0000                                         
     4  1  1.50       -89.6752   6.0000                                         
     4  2  2.50       -25.8375  10.0000                                         
     5  0  0.50       -10.5484   2.0000                                         
     5  1  0.50        -3.6940   2.0000                                         
     5  2  1.50        -1.3606   0.0000                                         
     4  3  2.50        -4.0817   0.0000                                         
   Description                                                                  
     l       E           TYP  RCUT    TYP  RCUT                                 
     0    -10.5483727     23  3.000                                             
     0     27.2116520     23  3.000                                             
     1     -3.6939829     23  3.000                                             
     1      1.9821976     23  3.000                                             
     2     -1.3605826     23  3.000                                             
     3     -2.7211652     23  3.000                                             
  local pseudopotential read in
  partial core-charges read in
  partial kinetic energy density read in
  atomic valenz-charges read in
  non local Contribution for L=           0  read in
    real space projection operators read in
  non local Contribution for L=           0  read in
    real space projection operators read in
  non local Contribution for L=           1  read in
    real space projection operators read in
  non local Contribution for L=           1  read in
    real space projection operators read in
  non local Contribution for L=           2  read in
    real space projection operators read in
    PAW grid and wavefunctions read in
 
   number of l-projection  operators is LMAX  =           5
   number of lm-projection operators is LMMAX =          13
 
 POTCAR:    PAW_PBE Se 06Sep2000                  
   VRHFIN =Se: s2p4                                                             
   LEXCH  = PE                                                                  
   EATOM  =   257.1286 eV,   18.8984 Ry                                         
                                                                                
   TITEL  = PAW_PBE Se 06Sep2000                                                
   LULTRA =        F    use ultrasoft PP ?                                      
   IUNSCR =        1    unscreen: 0-lin 1-nonlin 2-no                           
   RPACOR =    1.900    partial core radius                                     
   POMASS =   78.960; ZVAL   =    6.000    mass and valenz                      
   RCORE  =    2.100    outmost cutoff radius                                   
   RWIGS  =    2.200; RWIGS  =    1.164    wigner-seitz radius (au A)           
   ENMAX  =  211.555; ENMIN  =  158.666 eV                                      
   ICORE  =        3    local potential                                         
   LCOR   =        T    correct aug charges                                     
   LPAW   =        T    paw PP                                                  
   EAUG   =  446.842                                                            
   DEXC   =    0.000                                                            
   RMAX   =    2.147    core radius for proj-oper                               
   RAUG   =    1.300    factor for augmentation sphere                          
   RDEP   =    2.177    radius for radial grids                                 
   RDEPT  =    1.928    core radius for aug-charge                              
                                                                                
   Atomic configuration                                                         
   10 entries                                                                   
     n  l   j            E        occ.                                          
     1  0  0.50    -12503.4787   2.0000                                         
     2  0  0.50     -1606.9547   2.0000                                         
     2  1  1.50     -1413.3140   6.0000                                         
     3  0  0.50      -213.4885   2.0000                                         
     3  1  1.50      -152.9538   6.0000                                         
     3  2  2.50       -53.1221  10.0000                                         
     4  0  0.50       -17.2865   2.0000                                         
     4  1  0.50        -6.5110   4.0000                                         
     4  2  2.50        -6.8029   0.0000                                         
     4  3  2.50        -6.8029   0.0000                                         
   Description                                                                  
     l       E           TYP  RCUT    TYP  RCUT                                 
     0    -17.2865377     23  2.100                                             
     0    -15.3094411     23  2.100                                             
     1     -6.5110275     23  2.100                                             
     1     -0.0695192     23  2.100                                             
     2     -6.8029130     23  2.100                                             
     3     -1.3605826      7  2.100                                             
  local pseudopotential read in
  partial core-charges read in
  partial kinetic energy density read in
  atomic valenz-charges read in
  non local Contribution for L=           0  read in
    real space projection operators read in
  non local Contribution for L=           0  read in
    real space projection operators read in
  non local Contribution for L=           1  read in
    real space projection operators read in
  non local Contribution for L=           1  read in
    real space projection operators read in
  non local Contribution for L=           2  read in
    real space projection operators read in
    PAW grid and wavefunctions read in
 
   number of l-projection  operators is LMAX  =           5
   number of lm-projection operators is LMMAX =          13
 
 WARNING: PSMAXN for non-local potential too small
          PSMAXN should be >   12.5490833729506       NTYP=           1
  PAW_PBE Sn 08Apr2002                  :
 energy of atom  1       EATOM=  -94.0860
 kinetic energy error for atom=    0.0000 (will be added to EATOM!!)
  PAW_PBE Se 06Sep2000                  :
 energy of atom  2       EATOM= -257.1286
 kinetic energy error for atom=    0.0006 (will be added to EATOM!!)
 
 
 POSCAR:  POSCAR with strain of 0.000            
  positions in direct lattice
  No initial velocities read in
 exchange correlation table for  LEXCH =        8
   RHO(1)=    0.500       N(1)  =     2000
   RHO(2)=  100.500       N(2)  =     4000
 


--------------------------------------------------------------------------------------------------------


 ion  position               nearest neighbor table
   1  0.581  0.750  0.569-   4 2.72   3 2.92   3 2.92   3 3.22   3 3.22
   2  0.081  0.250  0.431-   3 2.72   4 2.92   4 2.92   4 3.22   4 3.22
   3  0.033  0.250  0.567-   2 2.72   1 2.92   1 2.92   1 3.22   1 3.22
   4  0.533  0.750  0.433-   1 2.72   2 2.92   2 2.92   2 3.22   2 3.22
 

IMPORTANT INFORMATION: All symmetrisations will be switched off!
NOSYMM: (Re-)initialisation of all symmetry stuff for point group C_1.

 
 
 KPOINTS: KMesh Grid                              

Automatic generation of k-mesh.
Space group operators:
 irot       det(A)        alpha          n_x          n_y          n_z        tau_x        tau_y        tau_z
    1     1.000000     0.000000     1.000000     0.000000     0.000000     0.000000     0.000000     0.000000
 
 Subroutine IBZKPT returns following result:
 ===========================================
 
 Found    113 irreducible k-points:
 
 Following reciprocal coordinates:
            Coordinates               Weight
  0.000000  0.000000  0.000000      1.000000
  0.066667  0.000000  0.000000      2.000000
  0.133333  0.000000  0.000000      2.000000
  0.200000  0.000000  0.000000      2.000000
  0.266667  0.000000  0.000000      2.000000
  0.333333  0.000000  0.000000      2.000000
  0.400000  0.000000  0.000000      2.000000
  0.466667  0.000000  0.000000      2.000000
  0.000000  0.066667  0.000000      2.000000
  0.066667  0.066667  0.000000      2.000000
  0.133333  0.066667  0.000000      2.000000
  0.200000  0.066667  0.000000      2.000000
  0.266667  0.066667  0.000000      2.000000
  0.333333  0.066667  0.000000      2.000000
  0.400000  0.066667  0.000000      2.000000
  0.466667  0.066667  0.000000      2.000000
 -0.466667  0.066667  0.000000      2.000000
 -0.400000  0.066667  0.000000      2.000000
 -0.333333  0.066667  0.000000      2.000000
 -0.266667  0.066667  0.000000      2.000000
 -0.200000  0.066667  0.000000      2.000000
 -0.133333  0.066667  0.000000      2.000000
 -0.066667  0.066667  0.000000      2.000000
  0.000000  0.133333  0.000000      2.000000
  0.066667  0.133333  0.000000      2.000000
  0.133333  0.133333  0.000000      2.000000
  0.200000  0.133333  0.000000      2.000000
  0.266667  0.133333  0.000000      2.000000
  0.333333  0.133333  0.000000      2.000000
  0.400000  0.133333  0.000000      2.000000
  0.466667  0.133333  0.000000      2.000000
 -0.466667  0.133333  0.000000      2.000000
 -0.400000  0.133333  0.000000      2.000000
 -0.333333  0.133333  0.000000      2.000000
 -0.266667  0.133333  0.000000      2.000000
 -0.200000  0.133333  0.000000      2.000000
 -0.133333  0.133333  0.000000      2.000000
 -0.066667  0.133333  0.000000      2.000000
  0.000000  0.200000  0.000000      2.000000
  0.066667  0.200000  0.000000      2.000000
  0.133333  0.200000  0.000000      2.000000
  0.200000  0.200000  0.000000      2.000000
  0.266667  0.200000  0.000000      2.000000
  0.333333  0.200000  0.000000      2.000000
  0.400000  0.200000  0.000000      2.000000
  0.466667  0.200000  0.000000      2.000000
 -0.466667  0.200000  0.000000      2.000000
 -0.400000  0.200000  0.000000      2.000000
 -0.333333  0.200000  0.000000      2.000000
 -0.266667  0.200000  0.000000      2.000000
 -0.200000  0.200000  0.000000      2.000000
 -0.133333  0.200000  0.000000      2.000000
 -0.066667  0.200000  0.000000      2.000000
  0.000000  0.266667  0.000000      2.000000
  0.066667  0.266667  0.000000      2.000000
  0.133333  0.266667  0.000000      2.000000
  0.200000  0.266667  0.000000      2.000000
  0.266667  0.266667  0.000000      2.000000
  0.333333  0.266667  0.000000      2.000000
  0.400000  0.266667  0.000000      2.000000
  0.466667  0.266667  0.000000      2.000000
 -0.466667  0.266667  0.000000      2.000000
 -0.400000  0.266667  0.000000      2.000000
 -0.333333  0.266667  0.000000      2.000000
 -0.266667  0.266667  0.000000      2.000000
 -0.200000  0.266667  0.000000      2.000000
 -0.133333  0.266667  0.000000      2.000000
 -0.066667  0.266667  0.000000      2.000000
  0.000000  0.333333  0.000000      2.000000
  0.066667  0.333333  0.000000      2.000000
  0.133333  0.333333  0.000000      2.000000
  0.200000  0.333333  0.000000      2.000000
  0.266667  0.333333  0.000000      2.000000
  0.333333  0.333333  0.000000      2.000000
  0.400000  0.333333  0.000000      2.000000
  0.466667  0.333333  0.000000      2.000000
 -0.466667  0.333333  0.000000      2.000000
 -0.400000  0.333333  0.000000      2.000000
 -0.333333  0.333333  0.000000      2.000000
 -0.266667  0.333333  0.000000      2.000000
 -0.200000  0.333333  0.000000      2.000000
 -0.133333  0.333333  0.000000      2.000000
 -0.066667  0.333333  0.000000      2.000000
  0.000000  0.400000  0.000000      2.000000
  0.066667  0.400000  0.000000      2.000000
  0.133333  0.400000  0.000000      2.000000
  0.200000  0.400000  0.000000      2.000000
  0.266667  0.400000  0.000000      2.000000
  0.333333  0.400000  0.000000      2.000000
  0.400000  0.400000  0.000000      2.000000
  0.466667  0.400000  0.000000      2.000000
 -0.466667  0.400000  0.000000      2.000000
 -0.400000  0.400000  0.000000      2.000000
 -0.333333  0.400000  0.000000      2.000000
 -0.266667  0.400000  0.000000      2.000000
 -0.200000  0.400000  0.000000      2.000000
 -0.133333  0.400000  0.000000      2.000000
 -0.066667  0.400000  0.000000      2.000000
  0.000000  0.466667  0.000000      2.000000
  0.066667  0.466667  0.000000      2.000000
  0.133333  0.466667  0.000000      2.000000
  0.200000  0.466667  0.000000      2.000000
  0.266667  0.466667  0.000000      2.000000
  0.333333  0.466667  0.000000      2.000000
  0.400000  0.466667  0.000000      2.000000
  0.466667  0.466667  0.000000      2.000000
 -0.466667  0.466667  0.000000      2.000000
 -0.400000  0.466667  0.000000      2.000000
 -0.333333  0.466667  0.000000      2.000000
 -0.266667  0.466667  0.000000      2.000000
 -0.200000  0.466667  0.000000      2.000000
 -0.133333  0.466667  0.000000      2.000000
 -0.066667  0.466667  0.000000      2.000000
 
 Following cartesian coordinates:
            Coordinates               Weight
  0.000000  0.000000  0.000000      1.000000
  0.015213  0.000000  0.000000      2.000000
  0.030425  0.000000  0.000000      2.000000
  0.045638  0.000000  0.000000      2.000000
  0.060850  0.000000  0.000000      2.000000
  0.076063  0.000000  0.000000      2.000000
  0.091275  0.000000  0.000000      2.000000
  0.106488  0.000000  0.000000      2.000000
  0.000000  0.015531  0.000000      2.000000
  0.015213  0.015531  0.000000      2.000000
  0.030425  0.015531  0.000000      2.000000
  0.045638  0.015531  0.000000      2.000000
  0.060850  0.015531  0.000000      2.000000
  0.076063  0.015531  0.000000      2.000000
  0.091275  0.015531  0.000000      2.000000
  0.106488  0.015531  0.000000      2.000000
 -0.106488  0.015531  0.000000      2.000000
 -0.091275  0.015531  0.000000      2.000000
 -0.076063  0.015531  0.000000      2.000000
 -0.060850  0.015531  0.000000      2.000000
 -0.045638  0.015531  0.000000      2.000000
 -0.030425  0.015531  0.000000      2.000000
 -0.015213  0.015531  0.000000      2.000000
  0.000000  0.031062  0.000000      2.000000
  0.015213  0.031062  0.000000      2.000000
  0.030425  0.031062  0.000000      2.000000
  0.045638  0.031062  0.000000      2.000000
  0.060850  0.031062  0.000000      2.000000
  0.076063  0.031062  0.000000      2.000000
  0.091275  0.031062  0.000000      2.000000
  0.106488  0.031062  0.000000      2.000000
 -0.106488  0.031062  0.000000      2.000000
 -0.091275  0.031062  0.000000      2.000000
 -0.076063  0.031062  0.000000      2.000000
 -0.060850  0.031062  0.000000      2.000000
 -0.045638  0.031062  0.000000      2.000000
 -0.030425  0.031062  0.000000      2.000000
 -0.015213  0.031062  0.000000      2.000000
  0.000000  0.046593  0.000000      2.000000
  0.015213  0.046593  0.000000      2.000000
  0.030425  0.046593  0.000000      2.000000
  0.045638  0.046593  0.000000      2.000000
  0.060850  0.046593  0.000000      2.000000
  0.076063  0.046593  0.000000      2.000000
  0.091275  0.046593  0.000000      2.000000
  0.106488  0.046593  0.000000      2.000000
 -0.106488  0.046593  0.000000      2.000000
 -0.091275  0.046593  0.000000      2.000000
 -0.076063  0.046593  0.000000      2.000000
 -0.060850  0.046593  0.000000      2.000000
 -0.045638  0.046593  0.000000      2.000000
 -0.030425  0.046593  0.000000      2.000000
 -0.015213  0.046593  0.000000      2.000000
  0.000000  0.062124  0.000000      2.000000
  0.015213  0.062124  0.000000      2.000000
  0.030425  0.062124  0.000000      2.000000
  0.045638  0.062124  0.000000      2.000000
  0.060850  0.062124  0.000000      2.000000
  0.076063  0.062124  0.000000      2.000000
  0.091275  0.062124  0.000000      2.000000
  0.106488  0.062124  0.000000      2.000000
 -0.106488  0.062124  0.000000      2.000000
 -0.091275  0.062124  0.000000      2.000000
 -0.076063  0.062124  0.000000      2.000000
 -0.060850  0.062124  0.000000      2.000000
 -0.045638  0.062124  0.000000      2.000000
 -0.030425  0.062124  0.000000      2.000000
 -0.015213  0.062124  0.000000      2.000000
  0.000000  0.077655  0.000000      2.000000
  0.015213  0.077655  0.000000      2.000000
  0.030425  0.077655  0.000000      2.000000
  0.045638  0.077655  0.000000      2.000000
  0.060850  0.077655  0.000000      2.000000
  0.076063  0.077655  0.000000      2.000000
  0.091275  0.077655  0.000000      2.000000
  0.106488  0.077655  0.000000      2.000000
 -0.106488  0.077655  0.000000      2.000000
 -0.091275  0.077655  0.000000      2.000000
 -0.076063  0.077655  0.000000      2.000000
 -0.060850  0.077655  0.000000      2.000000
 -0.045638  0.077655  0.000000      2.000000
 -0.030425  0.077655  0.000000      2.000000
 -0.015213  0.077655  0.000000      2.000000
  0.000000  0.093186  0.000000      2.000000
  0.015213  0.093186  0.000000      2.000000
  0.030425  0.093186  0.000000      2.000000
  0.045638  0.093186  0.000000      2.000000
  0.060850  0.093186  0.000000      2.000000
  0.076063  0.093186  0.000000      2.000000
  0.091275  0.093186  0.000000      2.000000
  0.106488  0.093186  0.000000      2.000000
 -0.106488  0.093186  0.000000      2.000000
 -0.091275  0.093186  0.000000      2.000000
 -0.076063  0.093186  0.000000      2.000000
 -0.060850  0.093186  0.000000      2.000000
 -0.045638  0.093186  0.000000      2.000000
 -0.030425  0.093186  0.000000      2.000000
 -0.015213  0.093186  0.000000      2.000000
  0.000000  0.108717  0.000000      2.000000
  0.015213  0.108717  0.000000      2.000000
  0.030425  0.108717  0.000000      2.000000
  0.045638  0.108717  0.000000      2.000000
  0.060850  0.108717  0.000000      2.000000
  0.076063  0.108717  0.000000      2.000000
  0.091275  0.108717  0.000000      2.000000
  0.106488  0.108717  0.000000      2.000000
 -0.106488  0.108717  0.000000      2.000000
 -0.091275  0.108717  0.000000      2.000000
 -0.076063  0.108717  0.000000      2.000000
 -0.060850  0.108717  0.000000      2.000000
 -0.045638  0.108717  0.000000      2.000000
 -0.030425  0.108717  0.000000      2.000000
 -0.015213  0.108717  0.000000      2.000000
 


--------------------------------------------------------------------------------------------------------




 Dimension of arrays:
   k-points           NKPTS =    113   k-points in BZ     NKDIM =    113   number of bands    NBANDS=     14
   number of dos      NEDOS =    301   number of ions     NIONS =      4
   non local maximal  LDIM  =      5   non local SUM 2l+1 LMDIM =     13
   total plane-waves  NPLWV = 207360
   max r-space proj   IRMAX =      1   max aug-charges    IRDMAX=  53247
   dimension x,y,z NGX =    36 NGY =   36 NGZ =  160
   dimension x,y,z NGXF=    72 NGYF=   72 NGZF=  320
   support grid    NGXF=    72 NGYF=   72 NGZF=  320
   ions per type =               2   2
   NGX,Y,Z   is equivalent  to a cutoff of  13.66, 13.94, 13.30 a.u.
   NGXF,Y,Z  is equivalent  to a cutoff of  27.31, 27.89, 26.60 a.u.

 SYSTEM =  SnSe                                    
 POSCAR =   POSCAR with strain of 0.000            

 Startparameter for this run:
   NWRITE =      2    write-flag & timer
   PREC   = accura    normal or accurate (medium, high low for compatibility)
   ISTART =      0    job   : 0-new  1-cont  2-samecut
   ICHARG =      2    charge: 1-file 2-atom 10-const
   ISPIN  =      1    spin polarized calculation?
   LNONCOLLINEAR =      F non collinear calculations
   LSORBIT =      F    spin-orbit coupling
   INIWAV =      1    electr: 0-lowe 1-rand  2-diag
   LASPH  =      F    aspherical Exc in radial PAW
   METAGGA=      F    non-selfconsistent MetaGGA calc.

 Electronic Relaxation 1
   ENCUT  =  600.0 eV  44.10 Ry    6.64 a.u.   8.75  8.57 39.94*2*pi/ulx,y,z
   ENINI  =  600.0     initial cutoff
   ENAUG  =  446.8 eV  augmentation charge cutoff
   NELM   =     60;   NELMIN=  2; NELMDL= -5     # of ELM steps 
   EDIFF  = 0.1E-05   stopping-criterion for ELM
   LREAL  =      F    real-space projection
   NLSPLINE    = F    spline interpolate recip. space projectors
   LCOMPAT=      F    compatible to vasp.4.4
   GGA_COMPAT  = T    GGA compatible to vasp.4.4-vasp.4.6
   LMAXPAW     = -100 max onsite density
   LMAXMIX     =    2 max onsite mixed and CHGCAR
   VOSKOWN=      0    Vosko Wilk Nusair interpolation
   ROPT   =    0.00000   0.00000
 Ionic relaxation
   EDIFFG = -.1E-02   stopping-criterion for IOM
   NSW    =    100    number of steps for IOM
   NBLOCK =      1;   KBLOCK =    100    inner block; outer block 
   IBRION =      2    ionic relax: 0-MD 1-quasi-New 2-CG
   NFREE  =      1    steps in history (QN), initial steepest desc. (CG)
   ISIF   =      2    stress and relaxation
   IWAVPR =     11    prediction:  0-non 1-charg 2-wave 3-comb
   ISYM   =      0    0-nonsym 1-usesym 2-fastsym
   LCORR  =      T    Harris-Foulkes like correction to forces

   POTIM  = 0.5000    time-step for ionic-motion
   TEIN   =    0.0    initial temperature
   TEBEG  =    0.0;   TEEND  =   0.0 temperature during run
   SMASS  =  -3.00    Nose mass-parameter (am)
   estimated Nose-frequenzy (Omega)   =  0.10E-29 period in steps =****** mass=  -0.439E-27a.u.
   SCALEE = 1.0000    scale energy and forces
   NPACO  =    256;   APACO  = 16.0  distance and # of slots for P.C.
   PSTRESS=    0.0 pullay stress

  Mass of Ions in am
   POMASS = 118.71 78.96
  Ionic Valenz
   ZVAL   =   4.00  6.00
  Atomic Wigner-Seitz radii
   RWIGS  =  -1.00 -1.00
  virtual crystal weights 
   VCA    =   1.00  1.00
   NELECT =      20.0000    total number of electrons
   NUPDOWN=      -1.0000    fix difference up-down

 DOS related values:
   EMIN   =  10.00;   EMAX   =-10.00  energy-range for DOS
   EFERMI =   0.00
   ISMEAR =     0;   SIGMA  =   0.10  broadening in eV -4-tet -1-fermi 0-gaus

 Electronic relaxation 2 (details)
   IALGO  =     38    algorithm
   LDIAG  =      T    sub-space diagonalisation (order eigenvalues)
   LSUBROT=      F    optimize rotation matrix (better conditioning)
   TURBO    =      0    0=normal 1=particle mesh
   IRESTART =      0    0=no restart 2=restart with 2 vectors
   NREBOOT  =      0    no. of reboots
   NMIN     =      0    reboot dimension
   EREF     =   0.00    reference energy to select bands
   IMIX   =      4    mixing-type and parameters
     AMIX     =   0.40;   BMIX     =  1.00
     AMIX_MAG =   1.60;   BMIX_MAG =  1.00
     AMIN     =   0.10
     WC   =   100.;   INIMIX=   1;  MIXPRE=   1;  MAXMIX= -45

 Intra band minimization:
   WEIMIN = 0.0010     energy-eigenvalue tresh-hold
   EBREAK =  0.18E-07  absolut break condition
   DEPER  =   0.30     relativ break condition  

   TIME   =   0.40     timestep for ELM

  volume/ion in A,a.u.               =      94.06       634.72
  Fermi-wavevector in a.u.,A,eV,Ry     =   0.615559  1.163238  5.155420  0.378913
  Thomas-Fermi vector in A             =   1.672972
 
 Write flags
   LWAVE        =      T    write WAVECAR
   LDOWNSAMPLE  =      F    k-point downsampling of WAVECAR
   LCHARG       =      T    write CHGCAR
   LVTOT        =      F    write LOCPOT, total local potential
   LVHAR        =      F    write LOCPOT, Hartree potential only
   LELF         =      F    write electronic localiz. function (ELF)
   LORBIT       =      0    0 simple, 1 ext, 2 COOP (PROOUT), +10 PAW based schemes


 Dipole corrections
   LMONO  =      F    monopole corrections only (constant potential shift)
   LDIPOL =      F    correct potential (dipole corrections)
   IDIPOL =      0    1-x, 2-y, 3-z, 4-all directions 
   EPSILON=  1.0000000 bulk dielectric constant

 Exchange correlation treatment:
   GGA     =    PE    GGA type
   LEXCH   =     8    internal setting for exchange type
   VOSKOWN=      0    Vosko Wilk Nusair interpolation
   LHFCALC =     F    Hartree Fock is set to
   LHFONE  =     F    Hartree Fock one center treatment
   AEXX    =    0.0000 exact exchange contribution

 Linear response parameters
   LEPSILON=     F    determine dielectric tensor
   LRPA    =     F    only Hartree local field effects (RPA)
   LNABLA  =     F    use nabla operator in PAW spheres
   LVEL    =     F    velocity operator in full k-point grid
   LINTERFAST=   F  fast interpolation
   KINTER  =     0    interpolate to denser k-point grid
   CSHIFT  =0.1000    complex shift for real part using Kramers Kronig
   OMEGAMAX=  -1.0    maximum frequency
   DEG_THRESHOLD= 0.2000000E-02 threshold for treating states as degnerate
   RTIME   =   -0.100 relaxation time in fs
  (WPLASMAI=    0.000 imaginary part of plasma frequency in eV, 0.658/RTIME)
   DFIELD  = 0.0000000 0.0000000 0.0000000 field for delta impulse in time
 
 Orbital magnetization related:
   ORBITALMAG=     F  switch on orbital magnetization
   LCHIMAG   =     F  perturbation theory with respect to B field
   DQ        =  0.001000  dq finite difference perturbation B field
   LLRAUG    =     F  two centre corrections for induced B field



--------------------------------------------------------------------------------------------------------


 conjugate gradient relaxation of ions
 charge density and potential will be updated during run
 non-spin polarized calculation
 Variant of blocked Davidson
 Davidson routine will perform the subspace rotation
 perform sub-space diagonalisation
    after iterative eigenvector-optimisation
 modified Broyden-mixing scheme, WC =      100.0
 initial mixing is a Kerker type mixing with AMIX =  0.4000 and BMIX =      1.0000
 Hartree-type preconditioning will be used
 using additional bands            4
 reciprocal scheme for non local part
 use partial core corrections
 calculate Harris-corrections to forces 
   (improved forces if not selfconsistent)
 use gradient corrections 
 use of overlap-Matrix (Vanderbilt PP)
 Gauss-broadening in eV      SIGMA  =   0.10


--------------------------------------------------------------------------------------------------------


  energy-cutoff  :      600.00
  volume of cell :      376.22
      direct lattice vectors                 reciprocal lattice vectors
     4.382356765  0.000000000  0.000000000     0.228187720  0.000000000  0.000000000
     0.000000000  4.292477857  0.000000000     0.000000000  0.232965675  0.000000000
     0.000000000  0.000000000 20.000000000     0.000000000  0.000000000  0.050000000

  length of vectors
     4.382356765  4.292477857 20.000000000     0.228187720  0.232965675  0.050000000


 
 k-points in units of 2pi/SCALE and weight: KMesh Grid                              
   0.00000000  0.00000000  0.00000000       0.004
   0.01521251  0.00000000  0.00000000       0.009
   0.03042503  0.00000000  0.00000000       0.009
   0.04563754  0.00000000  0.00000000       0.009
   0.06085006  0.00000000  0.00000000       0.009
   0.07606257  0.00000000  0.00000000       0.009
   0.09127509  0.00000000  0.00000000       0.009
   0.10648760  0.00000000  0.00000000       0.009
   0.00000000  0.01553104  0.00000000       0.009
   0.01521251  0.01553104  0.00000000       0.009
   0.03042503  0.01553104  0.00000000       0.009
   0.04563754  0.01553104  0.00000000       0.009
   0.06085006  0.01553104  0.00000000       0.009
   0.07606257  0.01553104  0.00000000       0.009
   0.09127509  0.01553104  0.00000000       0.009
   0.10648760  0.01553104  0.00000000       0.009
  -0.10648760  0.01553104  0.00000000       0.009
  -0.09127509  0.01553104  0.00000000       0.009
  -0.07606257  0.01553104  0.00000000       0.009
  -0.06085006  0.01553104  0.00000000       0.009
  -0.04563754  0.01553104  0.00000000       0.009
  -0.03042503  0.01553104  0.00000000       0.009
  -0.01521251  0.01553104  0.00000000       0.009
   0.00000000  0.03106209  0.00000000       0.009
   0.01521251  0.03106209  0.00000000       0.009
   0.03042503  0.03106209  0.00000000       0.009
   0.04563754  0.03106209  0.00000000       0.009
   0.06085006  0.03106209  0.00000000       0.009
   0.07606257  0.03106209  0.00000000       0.009
   0.09127509  0.03106209  0.00000000       0.009
   0.10648760  0.03106209  0.00000000       0.009
  -0.10648760  0.03106209  0.00000000       0.009
  -0.09127509  0.03106209  0.00000000       0.009
  -0.07606257  0.03106209  0.00000000       0.009
  -0.06085006  0.03106209  0.00000000       0.009
  -0.04563754  0.03106209  0.00000000       0.009
  -0.03042503  0.03106209  0.00000000       0.009
  -0.01521251  0.03106209  0.00000000       0.009
   0.00000000  0.04659313  0.00000000       0.009
   0.01521251  0.04659313  0.00000000       0.009
   0.03042503  0.04659313  0.00000000       0.009
   0.04563754  0.04659313  0.00000000       0.009
   0.06085006  0.04659313  0.00000000       0.009
   0.07606257  0.04659313  0.00000000       0.009
   0.09127509  0.04659313  0.00000000       0.009
   0.10648760  0.04659313  0.00000000       0.009
  -0.10648760  0.04659313  0.00000000       0.009
  -0.09127509  0.04659313  0.00000000       0.009
  -0.07606257  0.04659313  0.00000000       0.009
  -0.06085006  0.04659313  0.00000000       0.009
  -0.04563754  0.04659313  0.00000000       0.009
  -0.03042503  0.04659313  0.00000000       0.009
  -0.01521251  0.04659313  0.00000000       0.009
   0.00000000  0.06212418  0.00000000       0.009
   0.01521251  0.06212418  0.00000000       0.009
   0.03042503  0.06212418  0.00000000       0.009
   0.04563754  0.06212418  0.00000000       0.009
   0.06085006  0.06212418  0.00000000       0.009
   0.07606257  0.06212418  0.00000000       0.009
   0.09127509  0.06212418  0.00000000       0.009
   0.10648760  0.06212418  0.00000000       0.009
  -0.10648760  0.06212418  0.00000000       0.009
  -0.09127509  0.06212418  0.00000000       0.009
  -0.07606257  0.06212418  0.00000000       0.009
  -0.06085006  0.06212418  0.00000000       0.009
  -0.04563754  0.06212418  0.00000000       0.009
  -0.03042503  0.06212418  0.00000000       0.009
  -0.01521251  0.06212418  0.00000000       0.009
   0.00000000  0.07765522  0.00000000       0.009
   0.01521251  0.07765522  0.00000000       0.009
   0.03042503  0.07765522  0.00000000       0.009
   0.04563754  0.07765522  0.00000000       0.009
   0.06085006  0.07765522  0.00000000       0.009
   0.07606257  0.07765522  0.00000000       0.009
   0.09127509  0.07765522  0.00000000       0.009
   0.10648760  0.07765522  0.00000000       0.009
  -0.10648760  0.07765522  0.00000000       0.009
  -0.09127509  0.07765522  0.00000000       0.009
  -0.07606257  0.07765522  0.00000000       0.009
  -0.06085006  0.07765522  0.00000000       0.009
  -0.04563754  0.07765522  0.00000000       0.009
  -0.03042503  0.07765522  0.00000000       0.009
  -0.01521251  0.07765522  0.00000000       0.009
   0.00000000  0.09318627  0.00000000       0.009
   0.01521251  0.09318627  0.00000000       0.009
   0.03042503  0.09318627  0.00000000       0.009
   0.04563754  0.09318627  0.00000000       0.009
   0.06085006  0.09318627  0.00000000       0.009
   0.07606257  0.09318627  0.00000000       0.009
   0.09127509  0.09318627  0.00000000       0.009
   0.10648760  0.09318627  0.00000000       0.009
  -0.10648760  0.09318627  0.00000000       0.009
  -0.09127509  0.09318627  0.00000000       0.009
  -0.07606257  0.09318627  0.00000000       0.009
  -0.06085006  0.09318627  0.00000000       0.009
  -0.04563754  0.09318627  0.00000000       0.009
  -0.03042503  0.09318627  0.00000000       0.009
  -0.01521251  0.09318627  0.00000000       0.009
   0.00000000  0.10871731  0.00000000       0.009
   0.01521251  0.10871731  0.00000000       0.009
   0.03042503  0.10871731  0.00000000       0.009
   0.04563754  0.10871731  0.00000000       0.009
   0.06085006  0.10871731  0.00000000       0.009
   0.07606257  0.10871731  0.00000000       0.009
   0.09127509  0.10871731  0.00000000       0.009
   0.10648760  0.10871731  0.00000000       0.009
  -0.10648760  0.10871731  0.00000000       0.009
  -0.09127509  0.10871731  0.00000000       0.009
  -0.07606257  0.10871731  0.00000000       0.009
  -0.06085006  0.10871731  0.00000000       0.009
  -0.04563754  0.10871731  0.00000000       0.009
  -0.03042503  0.10871731  0.00000000       0.009
  -0.01521251  0.10871731  0.00000000       0.009
 
 k-points in reciprocal lattice and weights: KMesh Grid                              
   0.00000000  0.00000000  0.00000000       0.004
   0.06666667  0.00000000  0.00000000       0.009
   0.13333333  0.00000000  0.00000000       0.009
   0.20000000  0.00000000  0.00000000       0.009
   0.26666667  0.00000000  0.00000000       0.009
   0.33333333  0.00000000  0.00000000       0.009
   0.40000000  0.00000000  0.00000000       0.009
   0.46666667  0.00000000  0.00000000       0.009
   0.00000000  0.06666667  0.00000000       0.009
   0.06666667  0.06666667  0.00000000       0.009
   0.13333333  0.06666667  0.00000000       0.009
   0.20000000  0.06666667  0.00000000       0.009
   0.26666667  0.06666667  0.00000000       0.009
   0.33333333  0.06666667  0.00000000       0.009
   0.40000000  0.06666667  0.00000000       0.009
   0.46666667  0.06666667  0.00000000       0.009
  -0.46666667  0.06666667  0.00000000       0.009
  -0.40000000  0.06666667  0.00000000       0.009
  -0.33333333  0.06666667  0.00000000       0.009
  -0.26666667  0.06666667  0.00000000       0.009
  -0.20000000  0.06666667  0.00000000       0.009
  -0.13333333  0.06666667  0.00000000       0.009
  -0.06666667  0.06666667  0.00000000       0.009
   0.00000000  0.13333333  0.00000000       0.009
   0.06666667  0.13333333  0.00000000       0.009
   0.13333333  0.13333333  0.00000000       0.009
   0.20000000  0.13333333  0.00000000       0.009
   0.26666667  0.13333333  0.00000000       0.009
   0.33333333  0.13333333  0.00000000       0.009
   0.40000000  0.13333333  0.00000000       0.009
   0.46666667  0.13333333  0.00000000       0.009
  -0.46666667  0.13333333  0.00000000       0.009
  -0.40000000  0.13333333  0.00000000       0.009
  -0.33333333  0.13333333  0.00000000       0.009
  -0.26666667  0.13333333  0.00000000       0.009
  -0.20000000  0.13333333  0.00000000       0.009
  -0.13333333  0.13333333  0.00000000       0.009
  -0.06666667  0.13333333  0.00000000       0.009
   0.00000000  0.20000000  0.00000000       0.009
   0.06666667  0.20000000  0.00000000       0.009
   0.13333333  0.20000000  0.00000000       0.009
   0.20000000  0.20000000  0.00000000       0.009
   0.26666667  0.20000000  0.00000000       0.009
   0.33333333  0.20000000  0.00000000       0.009
   0.40000000  0.20000000  0.00000000       0.009
   0.46666667  0.20000000  0.00000000       0.009
  -0.46666667  0.20000000  0.00000000       0.009
  -0.40000000  0.20000000  0.00000000       0.009
  -0.33333333  0.20000000  0.00000000       0.009
  -0.26666667  0.20000000  0.00000000       0.009
  -0.20000000  0.20000000  0.00000000       0.009
  -0.13333333  0.20000000  0.00000000       0.009
  -0.06666667  0.20000000  0.00000000       0.009
   0.00000000  0.26666667  0.00000000       0.009
   0.06666667  0.26666667  0.00000000       0.009
   0.13333333  0.26666667  0.00000000       0.009
   0.20000000  0.26666667  0.00000000       0.009
   0.26666667  0.26666667  0.00000000       0.009
   0.33333333  0.26666667  0.00000000       0.009
   0.40000000  0.26666667  0.00000000       0.009
   0.46666667  0.26666667  0.00000000       0.009
  -0.46666667  0.26666667  0.00000000       0.009
  -0.40000000  0.26666667  0.00000000       0.009
  -0.33333333  0.26666667  0.00000000       0.009
  -0.26666667  0.26666667  0.00000000       0.009
  -0.20000000  0.26666667  0.00000000       0.009
  -0.13333333  0.26666667  0.00000000       0.009
  -0.06666667  0.26666667  0.00000000       0.009
   0.00000000  0.33333333  0.00000000       0.009
   0.06666667  0.33333333  0.00000000       0.009
   0.13333333  0.33333333  0.00000000       0.009
   0.20000000  0.33333333  0.00000000       0.009
   0.26666667  0.33333333  0.00000000       0.009
   0.33333333  0.33333333  0.00000000       0.009
   0.40000000  0.33333333  0.00000000       0.009
   0.46666667  0.33333333  0.00000000       0.009
  -0.46666667  0.33333333  0.00000000       0.009
  -0.40000000  0.33333333  0.00000000       0.009
  -0.33333333  0.33333333  0.00000000       0.009
  -0.26666667  0.33333333  0.00000000       0.009
  -0.20000000  0.33333333  0.00000000       0.009
  -0.13333333  0.33333333  0.00000000       0.009
  -0.06666667  0.33333333  0.00000000       0.009
   0.00000000  0.40000000  0.00000000       0.009
   0.06666667  0.40000000  0.00000000       0.009
   0.13333333  0.40000000  0.00000000       0.009
   0.20000000  0.40000000  0.00000000       0.009
   0.26666667  0.40000000  0.00000000       0.009
   0.33333333  0.40000000  0.00000000       0.009
   0.40000000  0.40000000  0.00000000       0.009
   0.46666667  0.40000000  0.00000000       0.009
  -0.46666667  0.40000000  0.00000000       0.009
  -0.40000000  0.40000000  0.00000000       0.009
  -0.33333333  0.40000000  0.00000000       0.009
  -0.26666667  0.40000000  0.00000000       0.009
  -0.20000000  0.40000000  0.00000000       0.009
  -0.13333333  0.40000000  0.00000000       0.009
  -0.06666667  0.40000000  0.00000000       0.009
   0.00000000  0.46666667  0.00000000       0.009
   0.06666667  0.46666667  0.00000000       0.009
   0.13333333  0.46666667  0.00000000       0.009
   0.20000000  0.46666667  0.00000000       0.009
   0.26666667  0.46666667  0.00000000       0.009
   0.33333333  0.46666667  0.00000000       0.009
   0.40000000  0.46666667  0.00000000       0.009
   0.46666667  0.46666667  0.00000000       0.009
  -0.46666667  0.46666667  0.00000000       0.009
  -0.40000000  0.46666667  0.00000000       0.009
  -0.33333333  0.46666667  0.00000000       0.009
  -0.26666667  0.46666667  0.00000000       0.009
  -0.20000000  0.46666667  0.00000000       0.009
  -0.13333333  0.46666667  0.00000000       0.009
  -0.06666667  0.46666667  0.00000000       0.009
 
 position of ions in fractional coordinates (direct lattice) 
   0.58124336  0.75000000  0.56874314
   0.08124336  0.25000000  0.43125686
   0.03286064  0.25000000  0.56707387
   0.53286061  0.75000000  0.43292613
 
 position of ions in cartesian coordinates  (Angst):
   2.54721576  3.21935839 11.37486283
   0.35603738  1.07311946  8.62513717
   0.14400706  1.07311946 11.34147733
   2.33518532  3.21935839  8.65852267
 


--------------------------------------------------------------------------------------------------------


 k-point  1 :   0.0000 0.0000 0.0000  plane waves:   12651
 k-point  2 :   0.0667 0.0000 0.0000  plane waves:   12591
 k-point  3 :   0.1333 0.0000 0.0000  plane waves:   12573
 k-point  4 :   0.2000 0.0000 0.0000  plane waves:   12533
 k-point  5 :   0.2667 0.0000 0.0000  plane waves:   12532
 k-point  6 :   0.3333 0.0000 0.0000  plane waves:   12570
 k-point  7 :   0.4000 0.0000 0.0000  plane waves:   12602
 k-point  8 :   0.4667 0.0000 0.0000  plane waves:   12578
 k-point  9 :   0.0000 0.0667 0.0000  plane waves:   12585
 k-point 10 :   0.0667 0.0667 0.0000  plane waves:   12588
 k-point 11 :   0.1333 0.0667 0.0000  plane waves:   12570
 k-point 12 :   0.2000 0.0667 0.0000  plane waves:   12558
 k-point 13 :   0.2667 0.0667 0.0000  plane waves:   12557
 k-point 14 :   0.3333 0.0667 0.0000  plane waves:   12570
 k-point 15 :   0.4000 0.0667 0.0000  plane waves:   12590
 k-point 16 :   0.4667 0.0667 0.0000  plane waves:   12590
 k-point 17 :  -0.4667 0.0667 0.0000  plane waves:   12590
 k-point 18 :  -0.4000 0.0667 0.0000  plane waves:   12590
 k-point 19 :  -0.3333 0.0667 0.0000  plane waves:   12570
 k-point 20 :  -0.2667 0.0667 0.0000  plane waves:   12557
 k-point 21 :  -0.2000 0.0667 0.0000  plane waves:   12558
 k-point 22 :  -0.1333 0.0667 0.0000  plane waves:   12570
 k-point 23 :  -0.0667 0.0667 0.0000  plane waves:   12588
 k-point 24 :   0.0000 0.1333 0.0000  plane waves:   12571
 k-point 25 :   0.0667 0.1333 0.0000  plane waves:   12574
 k-point 26 :   0.1333 0.1333 0.0000  plane waves:   12547
 k-point 27 :   0.2000 0.1333 0.0000  plane waves:   12534
 k-point 28 :   0.2667 0.1333 0.0000  plane waves:   12545
 k-point 29 :   0.3333 0.1333 0.0000  plane waves:   12574
 k-point 30 :   0.4000 0.1333 0.0000  plane waves:   12579
 k-point 31 :   0.4667 0.1333 0.0000  plane waves:   12576
 k-point 32 :  -0.4667 0.1333 0.0000  plane waves:   12576
 k-point 33 :  -0.4000 0.1333 0.0000  plane waves:   12579
 k-point 34 :  -0.3333 0.1333 0.0000  plane waves:   12574
 k-point 35 :  -0.2667 0.1333 0.0000  plane waves:   12545
 k-point 36 :  -0.2000 0.1333 0.0000  plane waves:   12534
 k-point 37 :  -0.1333 0.1333 0.0000  plane waves:   12547
 k-point 38 :  -0.0667 0.1333 0.0000  plane waves:   12574
 k-point 39 :   0.0000 0.2000 0.0000  plane waves:   12573
 k-point 40 :   0.0667 0.2000 0.0000  plane waves:   12559
 k-point 41 :   0.1333 0.2000 0.0000  plane waves:   12566
 k-point 42 :   0.2000 0.2000 0.0000  plane waves:   12557
 k-point 43 :   0.2667 0.2000 0.0000  plane waves:   12546
 k-point 44 :   0.3333 0.2000 0.0000  plane waves:   12549
 k-point 45 :   0.4000 0.2000 0.0000  plane waves:   12562
 k-point 46 :   0.4667 0.2000 0.0000  plane waves:   12574
 k-point 47 :  -0.4667 0.2000 0.0000  plane waves:   12574
 k-point 48 :  -0.4000 0.2000 0.0000  plane waves:   12562
 k-point 49 :  -0.3333 0.2000 0.0000  plane waves:   12549
 k-point 50 :  -0.2667 0.2000 0.0000  plane waves:   12546
 k-point 51 :  -0.2000 0.2000 0.0000  plane waves:   12557
 k-point 52 :  -0.1333 0.2000 0.0000  plane waves:   12566
 k-point 53 :  -0.0667 0.2000 0.0000  plane waves:   12559
 k-point 54 :   0.0000 0.2667 0.0000  plane waves:   12565
 k-point 55 :   0.0667 0.2667 0.0000  plane waves:   12552
 k-point 56 :   0.1333 0.2667 0.0000  plane waves:   12557
 k-point 57 :   0.2000 0.2667 0.0000  plane waves:   12559
 k-point 58 :   0.2667 0.2667 0.0000  plane waves:   12561
 k-point 59 :   0.3333 0.2667 0.0000  plane waves:   12557
 k-point 60 :   0.4000 0.2667 0.0000  plane waves:   12559
 k-point 61 :   0.4667 0.2667 0.0000  plane waves:   12567
 k-point 62 :  -0.4667 0.2667 0.0000  plane waves:   12567
 k-point 63 :  -0.4000 0.2667 0.0000  plane waves:   12559
 k-point 64 :  -0.3333 0.2667 0.0000  plane waves:   12557
 k-point 65 :  -0.2667 0.2667 0.0000  plane waves:   12561
 k-point 66 :  -0.2000 0.2667 0.0000  plane waves:   12559
 k-point 67 :  -0.1333 0.2667 0.0000  plane waves:   12557
 k-point 68 :  -0.0667 0.2667 0.0000  plane waves:   12552
 k-point 69 :   0.0000 0.3333 0.0000  plane waves:   12535
 k-point 70 :   0.0667 0.3333 0.0000  plane waves:   12531
 k-point 71 :   0.1333 0.3333 0.0000  plane waves:   12534
 k-point 72 :   0.2000 0.3333 0.0000  plane waves:   12555
 k-point 73 :   0.2667 0.3333 0.0000  plane waves:   12542
 k-point 74 :   0.3333 0.3333 0.0000  plane waves:   12540
 k-point 75 :   0.4000 0.3333 0.0000  plane waves:   12552
 k-point 76 :   0.4667 0.3333 0.0000  plane waves:   12557
 k-point 77 :  -0.4667 0.3333 0.0000  plane waves:   12557
 k-point 78 :  -0.4000 0.3333 0.0000  plane waves:   12552
 k-point 79 :  -0.3333 0.3333 0.0000  plane waves:   12540
 k-point 80 :  -0.2667 0.3333 0.0000  plane waves:   12542
 k-point 81 :  -0.2000 0.3333 0.0000  plane waves:   12555
 k-point 82 :  -0.1333 0.3333 0.0000  plane waves:   12534
 k-point 83 :  -0.0667 0.3333 0.0000  plane waves:   12531
 k-point 84 :   0.0000 0.4000 0.0000  plane waves:   12509
 k-point 85 :   0.0667 0.4000 0.0000  plane waves:   12532
 k-point 86 :   0.1333 0.4000 0.0000  plane waves:   12546
 k-point 87 :   0.2000 0.4000 0.0000  plane waves:   12535
 k-point 88 :   0.2667 0.4000 0.0000  plane waves:   12550
 k-point 89 :   0.3333 0.4000 0.0000  plane waves:   12535
 k-point 90 :   0.4000 0.4000 0.0000  plane waves:   12527
 k-point 91 :   0.4667 0.4000 0.0000  plane waves:   12541
 k-point 92 :  -0.4667 0.4000 0.0000  plane waves:   12541
 k-point 93 :  -0.4000 0.4000 0.0000  plane waves:   12527
 k-point 94 :  -0.3333 0.4000 0.0000  plane waves:   12535
 k-point 95 :  -0.2667 0.4000 0.0000  plane waves:   12550
 k-point 96 :  -0.2000 0.4000 0.0000  plane waves:   12535
 k-point 97 :  -0.1333 0.4000 0.0000  plane waves:   12546
 k-point 98 :  -0.0667 0.4000 0.0000  plane waves:   12532
 k-point 99 :   0.0000 0.4667 0.0000  plane waves:   12528
 k-point ** :   0.0667 0.4667 0.0000  plane waves:   12532
 k-point ** :   0.1333 0.4667 0.0000  plane waves:   12532
 k-point ** :   0.2000 0.4667 0.0000  plane waves:   12540
 k-point ** :   0.2667 0.4667 0.0000  plane waves:   12520
 k-point ** :   0.3333 0.4667 0.0000  plane waves:   12531
 k-point ** :   0.4000 0.4667 0.0000  plane waves:   12516
 k-point ** :   0.4667 0.4667 0.0000  plane waves:   12535
 k-point ** :  -0.4667 0.4667 0.0000  plane waves:   12535
 k-point ** :  -0.4000 0.4667 0.0000  plane waves:   12516
 k-point ** :  -0.3333 0.4667 0.0000  plane waves:   12531
 k-point ** :  -0.2667 0.4667 0.0000  plane waves:   12520
 k-point ** :  -0.2000 0.4667 0.0000  plane waves:   12540
 k-point ** :  -0.1333 0.4667 0.0000  plane waves:   12532
 k-point ** :  -0.0667 0.4667 0.0000  plane waves:   12532

 maximum and minimum number of plane-waves per node :       546      510

 maximum number of plane-waves:     12651
 maximum index in each direction: 
   IXMAX=    9   IYMAX=    8   IZMAX=   39
   IXMIN=   -9   IYMIN=   -9   IZMIN=  -39


 parallel 3D FFT for wavefunctions:
    minimum data exchange during FFTs selected (reduces bandwidth)
 parallel 3D FFT for charge:
    minimum data exchange during FFTs selected (reduces bandwidth)


 total amount of memory used by VASP MPI-rank0    63465. kBytes
=======================================================================

   base      :      30000. kBytes
   nonl-proj :      12585. kBytes
   fftplans  :       2678. kBytes
   grid      :       4349. kBytes
   one-center:          8. kBytes
   wavefun   :      13845. kBytes
 
     INWAV:  cpu time    0.0000: real time    0.0000
 Broyden mixing: mesh for mixing (old mesh)
   NGX = 17   NGY = 17   NGZ = 79
  (NGX  = 72   NGY  = 72   NGZ  =320)
  gives a total of  22831 points

 initial charge density was supplied:
 charge density of overlapping atoms calculated
 number of electron      20.0000000 magnetization 
 keeping initial charge density in first step


--------------------------------------------------------------------------------------------------------


 Maximum index for augmentation-charges         2228 (set IRDMAX)


--------------------------------------------------------------------------------------------------------


 First call to EWALD:  gamma=   0.246
 Maximum number of real-space cells 4x 4x 1
 Maximum number of reciprocal cells 2x 2x 7

    FEWALD:  cpu time    0.0012: real time    0.0017


--------------------------------------- Iteration      1(   1)  ---------------------------------------


    POTLOK:  cpu time    0.0441: real time    0.3018
    SETDIJ:  cpu time    0.0042: real time    0.0055
     EDDAV:  cpu time    2.1180: real time    2.1263
       DOS:  cpu time    0.0042: real time    0.0043
    --------------------------------------------
      LOOP:  cpu time    2.1704: real time    2.4379

 eigenvalue-minimisations  :  3164
 total energy-change (2. order) : 0.1441046E+03  (-0.6302815E+03)
 number of electron      20.0000000 magnetization 
 augmentation part       20.0000000 magnetization 

 Free energy of the ion-electron system (eV)
  ---------------------------------------------------
  alpha Z        PSCENC =         9.50421754
  Ewald energy   TEWEN  =      1152.71885526
  -Hartree energ DENC   =     -1754.61169093
  -exchange      EXHF   =         0.00000000
  -V(xc)+E(xc)   XCENC  =      -238.58756104
  PAW double counting   =       799.43158084     -524.17639913
  entropy T*S    EENTRO =        -0.01022534
  eigenvalues    EBANDS =        -2.59202953
  atomic energy  EATOM  =       702.42789710
  Solvation  Ediel_sol  =         0.00000000
  ---------------------------------------------------
  free energy    TOTEN  =       144.10464478 eV

  energy without entropy =      144.11487012  energy(sigma->0) =      144.10975745


--------------------------------------------------------------------------------------------------------




--------------------------------------- Iteration      1(   2)  ---------------------------------------


     EDDAV:  cpu time    2.9577: real time    2.9677
       DOS:  cpu time    0.0043: real time    0.0042
    --------------------------------------------
      LOOP:  cpu time    2.9619: real time    2.9719

 eigenvalue-minimisations  :  5202
 total energy-change (2. order) :-0.1393578E+03  (-0.1347649E+03)
 number of electron      20.0000000 magnetization 
 augmentation part       20.0000000 magnetization 

 Free energy of the ion-electron system (eV)
  ---------------------------------------------------
  alpha Z        PSCENC =         9.50421754
  Ewald energy   TEWEN  =      1152.71885526
  -Hartree energ DENC   =     -1754.61169093
  -exchange      EXHF   =         0.00000000
  -V(xc)+E(xc)   XCENC  =      -238.58756104
  PAW double counting   =       799.43158084     -524.17639913
  entropy T*S    EENTRO =        -0.00071481
  eigenvalues    EBANDS =      -141.95929560
  atomic energy  EATOM  =       702.42789710
  Solvation  Ediel_sol  =         0.00000000
  ---------------------------------------------------
  free energy    TOTEN  =         4.74688924 eV

  energy without entropy =        4.74760405  energy(sigma->0) =        4.74724665


--------------------------------------------------------------------------------------------------------




--------------------------------------- Iteration      1(   3)  ---------------------------------------


     EDDAV:  cpu time    2.4504: real time    2.4554
       DOS:  cpu time    0.0029: real time    0.0029
    --------------------------------------------
      LOOP:  cpu time    2.4533: real time    2.4583

 eigenvalue-minimisations  :  4004
 total energy-change (2. order) :-0.2072057E+02  (-0.2058233E+02)
 number of electron      20.0000000 magnetization 
 augmentation part       20.0000000 magnetization 

 Free energy of the ion-electron system (eV)
  ---------------------------------------------------
  alpha Z        PSCENC =         9.50421754
  Ewald energy   TEWEN  =      1152.71885526
  -Hartree energ DENC   =     -1754.61169093
  -exchange      EXHF   =         0.00000000
  -V(xc)+E(xc)   XCENC  =      -238.58756104
  PAW double counting   =       799.43158084     -524.17639913
  entropy T*S    EENTRO =        -0.00000000
  eigenvalues    EBANDS =      -162.68057608
  atomic energy  EATOM  =       702.42789710
  Solvation  Ediel_sol  =         0.00000000
  ---------------------------------------------------
  free energy    TOTEN  =       -15.97367643 eV

  energy without entropy =      -15.97367643  energy(sigma->0) =      -15.97367643


--------------------------------------------------------------------------------------------------------




--------------------------------------- Iteration      1(   4)  ---------------------------------------


     EDDAV:  cpu time    2.6143: real time    2.6196
       DOS:  cpu time    0.0030: real time    0.0030
    --------------------------------------------
      LOOP:  cpu time    2.6172: real time    2.6225

 eigenvalue-minimisations  :  4500
 total energy-change (2. order) :-0.8040220E+00  (-0.8013425E+00)
 number of electron      20.0000000 magnetization 
 augmentation part       20.0000000 magnetization 

 Free energy of the ion-electron system (eV)
  ---------------------------------------------------
  alpha Z        PSCENC =         9.50421754
  Ewald energy   TEWEN  =      1152.71885526
  -Hartree energ DENC   =     -1754.61169093
  -exchange      EXHF   =         0.00000000
  -V(xc)+E(xc)   XCENC  =      -238.58756104
  PAW double counting   =       799.43158084     -524.17639913
  entropy T*S    EENTRO =        -0.00000000
  eigenvalues    EBANDS =      -163.48459806
  atomic energy  EATOM  =       702.42789710
  Solvation  Ediel_sol  =         0.00000000
  ---------------------------------------------------
  free energy    TOTEN  =       -16.77769841 eV

  energy without entropy =      -16.77769841  energy(sigma->0) =      -16.77769841


--------------------------------------------------------------------------------------------------------




--------------------------------------- Iteration      1(   5)  ---------------------------------------


     EDDAV:  cpu time    2.4670: real time    2.4719
       DOS:  cpu time    0.0030: real time    0.0030
    CHARGE:  cpu time    0.1764: real time    0.1766
    MIXING:  cpu time    0.0014: real time    0.0017
    --------------------------------------------
      LOOP:  cpu time    2.6478: real time    2.6532

 eigenvalue-minimisations  :  4106
 total energy-change (2. order) :-0.1881863E-01  (-0.1880437E-01)
 number of electron      20.0000000 magnetization 
 augmentation part       -4.5229866 magnetization 

 Broyden mixing:
  rms(total) = 0.45138E+00    rms(broyden)= 0.45138E+00
  rms(prec ) = 0.49194E+00
  weight for this iteration     100.00

 Free energy of the ion-electron system (eV)
  ---------------------------------------------------
  alpha Z        PSCENC =         9.50421754
  Ewald energy   TEWEN  =      1152.71885526
  -Hartree energ DENC   =     -1754.61169093
  -exchange      EXHF   =         0.00000000
  -V(xc)+E(xc)   XCENC  =      -238.58756104
  PAW double counting   =       799.43158084     -524.17639913
  entropy T*S    EENTRO =        -0.00000000
  eigenvalues    EBANDS =      -163.50341669
  atomic energy  EATOM  =       702.42789710
  Solvation  Ediel_sol  =         0.00000000
  ---------------------------------------------------
  free energy    TOTEN  =       -16.79651703 eV

  energy without entropy =      -16.79651703  energy(sigma->0) =      -16.79651703


--------------------------------------------------------------------------------------------------------




--------------------------------------- Iteration      1(   6)  ---------------------------------------


    POTLOK:  cpu time    0.0365: real time    0.0366
    SETDIJ:  cpu time    0.0034: real time    0.0036
     EDDAV:  cpu time    2.3818: real time    2.3865
       DOS:  cpu time    0.0031: real time    0.0031
    CHARGE:  cpu time    0.1664: real time    0.1667
    MIXING:  cpu time    0.0011: real time    0.0013
    --------------------------------------------
      LOOP:  cpu time    2.5923: real time    2.5978

 eigenvalue-minimisations  :  3936
 total energy-change (2. order) : 0.4908503E+00  (-0.1243957E+00)
 number of electron      20.0000000 magnetization 
 augmentation part       -4.4903973 magnetization 

 Broyden mixing:
  rms(total) = 0.27684E+00    rms(broyden)= 0.27684E+00
  rms(prec ) = 0.28602E+00
  weight for this iteration     100.00

 eigenvalues of (default mixing * dielectric matrix)
  average eigenvalue GAMMA=   1.8030
  1.8030

 Free energy of the ion-electron system (eV)
  ---------------------------------------------------
  alpha Z        PSCENC =         9.50421754
  Ewald energy   TEWEN  =      1152.71885526
  -Hartree energ DENC   =     -1762.49227471
  -exchange      EXHF   =         0.00000000
  -V(xc)+E(xc)   XCENC  =      -238.10460623
  PAW double counting   =       924.24110990     -649.16781417
  entropy T*S    EENTRO =        -0.00000000
  eigenvalues    EBANDS =      -155.43305139
  atomic energy  EATOM  =       702.42789710
  Solvation  Ediel_sol  =         0.00000000
  ---------------------------------------------------
  free energy    TOTEN  =       -16.30566670 eV

  energy without entropy =      -16.30566670  energy(sigma->0) =      -16.30566670


--------------------------------------------------------------------------------------------------------




--------------------------------------- Iteration      1(   7)  ---------------------------------------


    POTLOK:  cpu time    0.0363: real time    0.0363
    SETDIJ:  cpu time    0.0030: real time    0.0030
     EDDAV:  cpu time    2.4381: real time    2.4429
       DOS:  cpu time    0.0031: real time    0.0031
    CHARGE:  cpu time    0.1660: real time    0.1661
    MIXING:  cpu time    0.0012: real time    0.0014
    --------------------------------------------
      LOOP:  cpu time    2.6476: real time    2.6529

 eigenvalue-minimisations  :  4090
 total energy-change (2. order) : 0.2752987E-01  (-0.3170848E-01)
 number of electron      20.0000000 magnetization 
 augmentation part       -4.4821096 magnetization 

 Broyden mixing:
  rms(total) = 0.10471E+00    rms(broyden)= 0.10471E+00
  rms(prec ) = 0.11014E+00
  weight for this iteration     100.00

 eigenvalues of (default mixing * dielectric matrix)
  average eigenvalue GAMMA=   1.7314
  1.3750  2.0878

 Free energy of the ion-electron system (eV)
  ---------------------------------------------------
  alpha Z        PSCENC =         9.50421754
  Ewald energy   TEWEN  =      1152.71885526
  -Hartree energ DENC   =     -1767.53415002
  -exchange      EXHF   =         0.00000000
  -V(xc)+E(xc)   XCENC  =      -237.77946729
  PAW double counting   =      1065.54284430     -790.60840426
  entropy T*S    EENTRO =        -0.00000000
  eigenvalues    EBANDS =      -150.54992947
  atomic energy  EATOM  =       702.42789710
  Solvation  Ediel_sol  =         0.00000000
  ---------------------------------------------------
  free energy    TOTEN  =       -16.27813683 eV

  energy without entropy =      -16.27813683  energy(sigma->0) =      -16.27813683


--------------------------------------------------------------------------------------------------------




--------------------------------------- Iteration      1(   8)  ---------------------------------------


    POTLOK:  cpu time    0.0363: real time    0.0364
    SETDIJ:  cpu time    0.0030: real time    0.0030
     EDDAV:  cpu time    2.6003: real time    2.6055
       DOS:  cpu time    0.0031: real time    0.0031
    CHARGE:  cpu time    0.1656: real time    0.1657
    MIXING:  cpu time    0.0013: real time    0.0012
    --------------------------------------------
      LOOP:  cpu time    2.8096: real time    2.8150

 eigenvalue-minimisations  :  4474
 total energy-change (2. order) : 0.9659145E-02  (-0.3925511E-02)
 number of electron      20.0000000 magnetization 
 augmentation part       -4.4863622 magnetization 

 Broyden mixing:
  rms(total) = 0.20472E-01    rms(broyden)= 0.20472E-01
  rms(prec ) = 0.27927E-01
  weight for this iteration     100.00

 eigenvalues of (default mixing * dielectric matrix)
  average eigenvalue GAMMA=   1.7055
  2.5273  1.2946  1.2946

 Free energy of the ion-electron system (eV)
  ---------------------------------------------------
  alpha Z        PSCENC =         9.50421754
  Ewald energy   TEWEN  =      1152.71885526
  -Hartree energ DENC   =     -1769.22360175
  -exchange      EXHF   =         0.00000000
  -V(xc)+E(xc)   XCENC  =      -237.70152454
  PAW double counting   =      1131.18760344     -856.29154297
  entropy T*S    EENTRO =        -0.00000000
  eigenvalues    EBANDS =      -148.89038178
  atomic energy  EATOM  =       702.42789710
  Solvation  Ediel_sol  =         0.00000000
  ---------------------------------------------------
  free energy    TOTEN  =       -16.26847769 eV

  energy without entropy =      -16.26847769  energy(sigma->0) =      -16.26847769


--------------------------------------------------------------------------------------------------------




--------------------------------------- Iteration      1(   9)  ---------------------------------------


    POTLOK:  cpu time    0.0364: real time    0.0365
    SETDIJ:  cpu time    0.0030: real time    0.0030
     EDDAV:  cpu time    2.5351: real time    2.5401
       DOS:  cpu time    0.0032: real time    0.0032
    CHARGE:  cpu time    0.1657: real time    0.1658
    MIXING:  cpu time    0.0012: real time    0.0013
    --------------------------------------------
      LOOP:  cpu time    2.7445: real time    2.7499

 eigenvalue-minimisations  :  4328
 total energy-change (2. order) : 0.3751177E-02  (-0.6830575E-03)
 number of electron      20.0000000 magnetization 
 augmentation part       -4.4844319 magnetization 

 Broyden mixing:
  rms(total) = 0.10070E-01    rms(broyden)= 0.10070E-01
  rms(prec ) = 0.15672E-01
  weight for this iteration     100.00

 eigenvalues of (default mixing * dielectric matrix)
  average eigenvalue GAMMA=   1.7132
  2.2350  2.2350  1.1914  1.1914

 Free energy of the ion-electron system (eV)
  ---------------------------------------------------
  alpha Z        PSCENC =         9.50421754
  Ewald energy   TEWEN  =      1152.71885526
  -Hartree energ DENC   =     -1771.20476316
  -exchange      EXHF   =         0.00000000
  -V(xc)+E(xc)   XCENC  =      -237.62790329
  PAW double counting   =      1149.32409514     -874.44009221
  entropy T*S    EENTRO =        -0.00000000
  eigenvalues    EBANDS =      -146.96703290
  atomic energy  EATOM  =       702.42789710
  Solvation  Ediel_sol  =         0.00000000
  ---------------------------------------------------
  free energy    TOTEN  =       -16.26472651 eV

  energy without entropy =      -16.26472651  energy(sigma->0) =      -16.26472651


--------------------------------------------------------------------------------------------------------




--------------------------------------- Iteration      1(  10)  ---------------------------------------


    POTLOK:  cpu time    0.0364: real time    0.0365
    SETDIJ:  cpu time    0.0030: real time    0.0030
     EDDAV:  cpu time    2.6010: real time    2.6060
       DOS:  cpu time    0.0031: real time    0.0030
    CHARGE:  cpu time    0.1777: real time    0.1778
    MIXING:  cpu time    0.0013: real time    0.0013
    --------------------------------------------
      LOOP:  cpu time    2.8224: real time    2.8277

 eigenvalue-minimisations  :  4370
 total energy-change (2. order) : 0.1302309E-02  (-0.1275555E-03)
 number of electron      20.0000000 magnetization 
 augmentation part       -4.4831785 magnetization 

 Broyden mixing:
  rms(total) = 0.51456E-02    rms(broyden)= 0.51456E-02
  rms(prec ) = 0.93763E-02
  weight for this iteration     100.00

 eigenvalues of (default mixing * dielectric matrix)
  average eigenvalue GAMMA=   1.8643
  3.3444  2.5969  1.2363  1.2363  0.9076

 Free energy of the ion-electron system (eV)
  ---------------------------------------------------
  alpha Z        PSCENC =         9.50421754
  Ewald energy   TEWEN  =      1152.71885526
  -Hartree energ DENC   =     -1772.48874361
  -exchange      EXHF   =         0.00000000
  -V(xc)+E(xc)   XCENC  =      -237.61679397
  PAW double counting   =      1138.80804613     -863.91373887
  entropy T*S    EENTRO =        -0.00000000
  eigenvalues    EBANDS =      -145.70316379
  atomic energy  EATOM  =       702.42789710
  Solvation  Ediel_sol  =         0.00000000
  ---------------------------------------------------
  free energy    TOTEN  =       -16.26342420 eV

  energy without entropy =      -16.26342420  energy(sigma->0) =      -16.26342420


--------------------------------------------------------------------------------------------------------




--------------------------------------- Iteration      1(  11)  ---------------------------------------


    POTLOK:  cpu time    0.0369: real time    0.0370
    SETDIJ:  cpu time    0.0031: real time    0.0031
     EDDAV:  cpu time    2.5516: real time    2.5564
       DOS:  cpu time    0.0031: real time    0.0031
    CHARGE:  cpu time    0.1655: real time    0.1657
    MIXING:  cpu time    0.0013: real time    0.0013
    --------------------------------------------
      LOOP:  cpu time    2.7615: real time    2.7665

 eigenvalue-minimisations  :  4304
 total energy-change (2. order) : 0.7272124E-03  (-0.1247243E-03)
 number of electron      20.0000000 magnetization 
 augmentation part       -4.4817998 magnetization 

 Broyden mixing:
  rms(total) = 0.32764E-02    rms(broyden)= 0.32764E-02
  rms(prec ) = 0.50067E-02
  weight for this iteration     100.00

 eigenvalues of (default mixing * dielectric matrix)
  average eigenvalue GAMMA=   1.8408
  3.4013  2.2944  2.0810  1.1910  1.1910  0.8858

 Free energy of the ion-electron system (eV)
  ---------------------------------------------------
  alpha Z        PSCENC =         9.50421754
  Ewald energy   TEWEN  =      1152.71885526
  -Hartree energ DENC   =     -1774.08362330
  -exchange      EXHF   =         0.00000000
  -V(xc)+E(xc)   XCENC  =      -237.58514247
  PAW double counting   =      1140.38220114     -865.48701386
  entropy T*S    EENTRO =        -0.00000000
  eigenvalues    EBANDS =      -144.14008842
  atomic energy  EATOM  =       702.42789710
  Solvation  Ediel_sol  =         0.00000000
  ---------------------------------------------------
  free energy    TOTEN  =       -16.26269699 eV

  energy without entropy =      -16.26269699  energy(sigma->0) =      -16.26269699


--------------------------------------------------------------------------------------------------------




--------------------------------------- Iteration      1(  12)  ---------------------------------------


    POTLOK:  cpu time    0.0367: real time    0.0369
    SETDIJ:  cpu time    0.0030: real time    0.0030
     EDDAV:  cpu time    2.2388: real time    2.2431
       DOS:  cpu time    0.0031: real time    0.0031
    CHARGE:  cpu time    0.1657: real time    0.1658
    MIXING:  cpu time    0.0015: real time    0.0015
    --------------------------------------------
      LOOP:  cpu time    2.4489: real time    2.4535

 eigenvalue-minimisations  :  3608
 total energy-change (2. order) :-0.8294572E-03  (-0.3079187E-04)
 number of electron      20.0000000 magnetization 
 augmentation part       -4.4811456 magnetization 

 Broyden mixing:
  rms(total) = 0.18372E-02    rms(broyden)= 0.18372E-02
  rms(prec ) = 0.28183E-02
  weight for this iteration     100.00

 eigenvalues of (default mixing * dielectric matrix)
  average eigenvalue GAMMA=   2.0646
  4.5882  3.0825  2.5035  1.2041  1.2041  1.0277  0.8423

 Free energy of the ion-electron system (eV)
  ---------------------------------------------------
  alpha Z        PSCENC =         9.50421754
  Ewald energy   TEWEN  =      1152.71885526
  -Hartree energ DENC   =     -1774.72920944
  -exchange      EXHF   =         0.00000000
  -V(xc)+E(xc)   XCENC  =      -237.57549393
  PAW double counting   =      1142.11366320     -867.22112744
  entropy T*S    EENTRO =        -0.00000000
  eigenvalues    EBANDS =      -143.50232875
  atomic energy  EATOM  =       702.42789710
  Solvation  Ediel_sol  =         0.00000000
  ---------------------------------------------------
  free energy    TOTEN  =       -16.26352645 eV

  energy without entropy =      -16.26352645  energy(sigma->0) =      -16.26352645


--------------------------------------------------------------------------------------------------------




--------------------------------------- Iteration      1(  13)  ---------------------------------------


    POTLOK:  cpu time    0.0371: real time    0.0372
    SETDIJ:  cpu time    0.0030: real time    0.0030
     EDDAV:  cpu time    2.3022: real time    2.3066
       DOS:  cpu time    0.0031: real time    0.0031
    CHARGE:  cpu time    0.1658: real time    0.1660
    MIXING:  cpu time    0.0015: real time    0.0015
    --------------------------------------------
      LOOP:  cpu time    2.5127: real time    2.5174

 eigenvalue-minimisations  :  3734
 total energy-change (2. order) :-0.4263576E-03  (-0.8043224E-05)
 number of electron      20.0000000 magnetization 
 augmentation part       -4.4809563 magnetization 

 Broyden mixing:
  rms(total) = 0.11627E-02    rms(broyden)= 0.11627E-02
  rms(prec ) = 0.15365E-02
  weight for this iteration     100.00

 eigenvalues of (default mixing * dielectric matrix)
  average eigenvalue GAMMA=   2.2348
  5.6326  3.2854  2.4736  2.1988  1.1593  1.1593  1.0586  0.9111

 Free energy of the ion-electron system (eV)
  ---------------------------------------------------
  alpha Z        PSCENC =         9.50421754
  Ewald energy   TEWEN  =      1152.71885526
  -Hartree energ DENC   =     -1775.13319552
  -exchange      EXHF   =         0.00000000
  -V(xc)+E(xc)   XCENC  =      -237.57426287
  PAW double counting   =      1141.02584748     -866.13215409
  entropy T*S    EENTRO =        -0.00000000
  eigenvalues    EBANDS =      -143.10115771
  atomic energy  EATOM  =       702.42789710
  Solvation  Ediel_sol  =         0.00000000
  ---------------------------------------------------
  free energy    TOTEN  =       -16.26395280 eV

  energy without entropy =      -16.26395280  energy(sigma->0) =      -16.26395280


--------------------------------------------------------------------------------------------------------




--------------------------------------- Iteration      1(  14)  ---------------------------------------


    POTLOK:  cpu time    0.0381: real time    0.0383
    SETDIJ:  cpu time    0.0030: real time    0.0030
     EDDAV:  cpu time    2.3708: real time    2.3754
       DOS:  cpu time    0.0031: real time    0.0031
    CHARGE:  cpu time    0.1656: real time    0.1657
    MIXING:  cpu time    0.0016: real time    0.0016
    --------------------------------------------
      LOOP:  cpu time    2.5822: real time    2.5871

 eigenvalue-minimisations  :  3920
 total energy-change (2. order) :-0.2659924E-03  (-0.4307941E-05)
 number of electron      20.0000000 magnetization 
 augmentation part       -4.4809305 magnetization 

 Broyden mixing:
  rms(total) = 0.40069E-03    rms(broyden)= 0.40069E-03
  rms(prec ) = 0.62192E-03
  weight for this iteration     100.00

 eigenvalues of (default mixing * dielectric matrix)
  average eigenvalue GAMMA=   2.2428
  6.7389  3.0688  2.5296  2.5296  1.1835  1.1835  1.0399  0.9557  0.9557

 Free energy of the ion-electron system (eV)
  ---------------------------------------------------
  alpha Z        PSCENC =         9.50421754
  Ewald energy   TEWEN  =      1152.71885526
  -Hartree energ DENC   =     -1775.34286669
  -exchange      EXHF   =         0.00000000
  -V(xc)+E(xc)   XCENC  =      -237.57414770
  PAW double counting   =      1141.26123029     -866.36694547
  entropy T*S    EENTRO =        -0.00000000
  eigenvalues    EBANDS =      -142.89245913
  atomic energy  EATOM  =       702.42789710
  Solvation  Ediel_sol  =         0.00000000
  ---------------------------------------------------
  free energy    TOTEN  =       -16.26421880 eV

  energy without entropy =      -16.26421880  energy(sigma->0) =      -16.26421880


--------------------------------------------------------------------------------------------------------




--------------------------------------- Iteration      1(  15)  ---------------------------------------


    POTLOK:  cpu time    0.0379: real time    0.0381
    SETDIJ:  cpu time    0.0030: real time    0.0030
     EDDAV:  cpu time    2.3485: real time    2.3530
       DOS:  cpu time    0.0031: real time    0.0031
    CHARGE:  cpu time    0.1659: real time    0.1660
    MIXING:  cpu time    0.0016: real time    0.0016
    --------------------------------------------
      LOOP:  cpu time    2.5600: real time    2.5648

 eigenvalue-minimisations  :  3840
 total energy-change (2. order) :-0.5692112E-04  (-0.2062881E-06)
 number of electron      20.0000000 magnetization 
 augmentation part       -4.4809487 magnetization 

 Broyden mixing:
  rms(total) = 0.33534E-03    rms(broyden)= 0.33534E-03
  rms(prec ) = 0.50745E-03
  weight for this iteration     100.00

 eigenvalues of (default mixing * dielectric matrix)
  average eigenvalue GAMMA=   2.3578
  6.5461  4.2829  2.7070  2.7070  1.9753  1.1405  1.1405  1.2063  0.9364  0.9364

 Free energy of the ion-electron system (eV)
  ---------------------------------------------------
  alpha Z        PSCENC =         9.50421754
  Ewald energy   TEWEN  =      1152.71885526
  -Hartree energ DENC   =     -1775.35741815
  -exchange      EXHF   =         0.00000000
  -V(xc)+E(xc)   XCENC  =      -237.57449952
  PAW double counting   =      1141.09162564     -866.19722808
  entropy T*S    EENTRO =        -0.00000000
  eigenvalues    EBANDS =      -142.87772551
  atomic energy  EATOM  =       702.42789710
  Solvation  Ediel_sol  =         0.00000000
  ---------------------------------------------------
  free energy    TOTEN  =       -16.26427572 eV

  energy without entropy =      -16.26427572  energy(sigma->0) =      -16.26427572


--------------------------------------------------------------------------------------------------------




--------------------------------------- Iteration      1(  16)  ---------------------------------------


    POTLOK:  cpu time    0.0368: real time    0.0369
    SETDIJ:  cpu time    0.0031: real time    0.0031
     EDDAV:  cpu time    2.1852: real time    2.1895
       DOS:  cpu time    0.0031: real time    0.0031
    CHARGE:  cpu time    0.1894: real time    0.1895
    MIXING:  cpu time    0.0019: real time    0.0020
    --------------------------------------------
      LOOP:  cpu time    2.4194: real time    2.4240

 eigenvalue-minimisations  :  3528
 total energy-change (2. order) :-0.4640062E-04  (-0.8445713E-06)
 number of electron      20.0000000 magnetization 
 augmentation part       -4.4809607 magnetization 

 Broyden mixing:
  rms(total) = 0.12473E-03    rms(broyden)= 0.12473E-03
  rms(prec ) = 0.22541E-03
  weight for this iteration     100.00

 eigenvalues of (default mixing * dielectric matrix)
  average eigenvalue GAMMA=   2.2817
  6.7994  4.5118  2.6476  2.6476  2.2604  1.1542  1.1542  1.1908  0.9372  0.9372
  0.8586

 Free energy of the ion-electron system (eV)
  ---------------------------------------------------
  alpha Z        PSCENC =         9.50421754
  Ewald energy   TEWEN  =      1152.71885526
  -Hartree energ DENC   =     -1775.41039957
  -exchange      EXHF   =         0.00000000
  -V(xc)+E(xc)   XCENC  =      -237.57458351
  PAW double counting   =      1140.94376583     -866.04937905
  entropy T*S    EENTRO =        -0.00000000
  eigenvalues    EBANDS =      -142.82469572
  atomic energy  EATOM  =       702.42789710
  Solvation  Ediel_sol  =         0.00000000
  ---------------------------------------------------
  free energy    TOTEN  =       -16.26432212 eV

  energy without entropy =      -16.26432212  energy(sigma->0) =      -16.26432212


--------------------------------------------------------------------------------------------------------




--------------------------------------- Iteration      1(  17)  ---------------------------------------


    POTLOK:  cpu time    0.0366: real time    0.0385
    SETDIJ:  cpu time    0.0031: real time    0.0031
     EDDAV:  cpu time    2.0981: real time    2.1022
       DOS:  cpu time    0.0031: real time    0.0031
    CHARGE:  cpu time    0.1704: real time    0.1706
    MIXING:  cpu time    0.0016: real time    0.0017
    --------------------------------------------
[...]

 k-point    94 :      -0.3333    0.4000    0.0000
  band No.  band energies     occupation 
      1     -14.4853      2.00000
      2     -14.2916      2.00000
      3      -8.6553      2.00000
      4      -8.5092      2.00000
      5      -6.3889      2.00000
      6      -5.5149      2.00000
      7      -5.0710      2.00000
      8      -4.3552      2.00000
      9      -3.9625      2.00000
     10      -3.3776      2.00000
     11       0.5221      0.00000
     12       1.3296      0.00000
     13       1.5776      0.00000
     14       2.2335      0.00000

 k-point    95 :      -0.2667    0.4000    0.0000
  band No.  band energies     occupation 
      1     -14.5605      2.00000
      2     -14.3067      2.00000
      3      -8.8351      2.00000
      4      -8.6134      2.00000
      5      -6.0737      2.00000
      6      -5.1201      2.00000
      7      -4.8321      2.00000
      8      -4.0982      2.00000
      9      -3.8684      2.00000
     10      -3.0924      2.00000
     11       0.1218      0.00000
     12       1.0703      0.00000
     13       1.1651      0.00000
     14       1.5780      0.00000

 k-point    96 :      -0.2000    0.4000    0.0000
  band No.  band energies     occupation 
      1     -14.6298      2.00000
      2     -14.3293      2.00000
      3      -8.9989      2.00000
      4      -8.7157      2.00000
      5      -5.6379      2.00000
      6      -4.8343      2.00000
      7      -4.5625      2.00000
      8      -3.9646      2.00000
      9      -3.5027      2.00000
     10      -2.7171      2.00000
     11      -0.3507      0.00000
     12       0.5583      0.00000
     13       0.7057      0.00000
     14       1.2187      0.00000

 k-point    97 :      -0.1333    0.4000    0.0000
  band No.  band energies     occupation 
      1     -14.6852      2.00000
      2     -14.3518      2.00000
      3      -9.1259      2.00000
      4      -8.7999      2.00000
      5      -5.1222      2.00000
      6      -4.7732      2.00000
      7      -4.1505      2.00000
      8      -3.9206      2.00000
      9      -2.9405      2.00000
     10      -2.4884      2.00000
     11      -0.6297      0.00000
     12      -0.1696      0.00000
     13       0.4859      0.00000
     14       0.7860      0.00000

 k-point    98 :      -0.0667    0.4000    0.0000
  band No.  band energies     occupation 
      1     -14.7208      2.00000
      2     -14.3680      2.00000
      3      -9.2054      2.00000
      4      -8.8546      2.00000
      5      -4.7779      2.00000
      6      -4.5897      2.00000
      7      -3.9465      2.00000
      8      -3.7433      2.00000
      9      -2.6533      2.00000
     10      -2.3699      2.00000
     11      -0.7638      0.00000
     12      -0.3850      0.00000
     13       0.2282      0.00000
     14       0.3678      0.00000

 k-point    99 :       0.0000    0.4667    0.0000
  band No.  band energies     occupation 
      1     -14.5890      2.00000
      2     -14.4654      2.00000
      3      -9.2170      2.00000
      4      -9.0937      2.00000
      5      -4.5393      2.00000
      6      -4.3208      2.00000
      7      -3.8586      2.00000
      8      -3.6643      2.00000
      9      -2.5646      2.00000
     10      -2.2242      2.00000
     11      -0.9020      0.00000
     12      -0.4648      0.00000
     13      -0.0731      0.00000
     14       0.1251      0.00000

 k-point   100 :       0.0667    0.4667    0.0000
  band No.  band energies     occupation 
      1     -14.5789      2.00000
      2     -14.4575      2.00000
      3      -9.1893      2.00000
      4      -9.0687      2.00000
      5      -4.5531      2.00000
      6      -4.4331      2.00000
      7      -4.0089      2.00000
      8      -3.8734      2.00000
      9      -2.4817      2.00000
     10      -2.3814      2.00000
     11      -0.8064      0.00000
     12      -0.6967      0.00000
     13       0.2856      0.00000
     14       0.5891      0.00000

 k-point   101 :       0.1333    0.4667    0.0000
  band No.  band energies     occupation 
      1     -14.5498      2.00000
      2     -14.4352      2.00000
      3      -9.1072      2.00000
      4      -8.9952      2.00000
      5      -4.8442      2.00000
      6      -4.6618      2.00000
      7      -4.2445      2.00000
      8      -4.1254      2.00000
      9      -2.8488      2.00000
     10      -2.6418      2.00000
     11      -0.5545      0.00000
     12      -0.3206      0.00000
     13       0.7856      0.00000
     14       0.8845      0.00000

 k-point   102 :       0.2000    0.4667    0.0000
  band No.  band energies     occupation 
      1     -14.5054      2.00000
      2     -14.4022      2.00000
      3      -8.9745      2.00000
      4      -8.8775      2.00000
      5      -5.3571      2.00000
      6      -5.0340      2.00000
      7      -4.4362      2.00000
      8      -4.2019      2.00000
      9      -3.3626      2.00000
     10      -3.0648      2.00000
     11      -0.0293      0.00000
     12       0.3302      0.00000
     13       1.0093      0.00000
     14       1.2344      0.00000

 k-point   103 :       0.2667    0.4667    0.0000
  band No.  band energies     occupation 
      1     -14.4518      2.00000
      2     -14.3647      2.00000
      3      -8.7996      2.00000
      4      -8.7244      2.00000
      5      -5.8318      2.00000
      6      -5.4909      2.00000
      7      -4.6333      2.00000
      8      -4.3709      2.00000
      9      -3.7030      2.00000
     10      -3.4313      2.00000
     11       0.4843      0.00000
     12       0.8424      0.00000
     13       1.4122      0.00000
     14       1.6581      0.00000

 k-point   104 :       0.3333    0.4667    0.0000
  band No.  band energies     occupation 
      1     -14.3966      2.00000
      2     -14.3303      2.00000
      3      -8.5991      2.00000
      4      -8.5518      2.00000
      5      -6.2200      2.00000
      6      -5.9081      2.00000
      7      -4.9330      2.00000
      8      -4.6734      2.00000
      9      -3.8109      2.00000
     10      -3.6135      2.00000
     11       0.8314      0.00000
     12       1.1048      0.00000
     13       1.9689      0.00000
     14       2.2397      0.00000

 k-point   105 :       0.4000    0.4667    0.0000
  band No.  band energies     occupation 
      1     -14.3484      2.00000
      2     -14.3067      2.00000
      3      -8.4071      2.00000
      4      -8.3877      2.00000
      5      -6.4873      2.00000
      6      -6.2570      2.00000
      7      -5.1896      2.00000
      8      -4.9957      2.00000
      9      -3.8049      2.00000
     10      -3.6852      2.00000
     11       1.0682      0.00000
     12       1.2385      0.00000
     13       2.4606      0.00000
     14       2.6880      0.00000

 k-point   106 :       0.4667    0.4667    0.0000
  band No.  band energies     occupation 
      1     -14.3146      2.00000
      2     -14.3004      2.00000
      3      -8.2820      2.00000
      4      -8.2791      2.00000
      5      -6.5919      2.00000
      6      -6.5045      2.00000
      7      -5.2961      2.00000
      8      -5.2239      2.00000
      9      -3.7674      2.00000
     10      -3.7270      2.00000
     11       1.2219      0.00000
     12       1.2799      0.00000
     13       2.6915      0.00000
     14       2.7978      0.00000

 k-point   107 :      -0.4667    0.4667    0.0000
  band No.  band energies     occupation 
      1     -14.3146      2.00000
      2     -14.3004      2.00000
      3      -8.2820      2.00000
      4      -8.2791      2.00000
      5      -6.5919      2.00000
      6      -6.5045      2.00000
      7      -5.2961      2.00000
      8      -5.2239      2.00000
      9      -3.7674      2.00000
     10      -3.7270      2.00000
     11       1.2219      0.00000
     12       1.2799      0.00000
     13       2.6915      0.00000
     14       2.7976      0.00000

 k-point   108 :      -0.4000    0.4667    0.0000
  band No.  band energies     occupation 
      1     -14.3484      2.00000
      2     -14.3067      2.00000
      3      -8.4071      2.00000
      4      -8.3877      2.00000
      5      -6.4873      2.00000
      6      -6.2570      2.00000
      7      -5.1896      2.00000
      8      -4.9957      2.00000
      9      -3.8049      2.00000
     10      -3.6852      2.00000
     11       1.0682      0.00000
     12       1.2385      0.00000
     13       2.4606      0.00000
     14       2.6881      0.00000

 k-point   109 :      -0.3333    0.4667    0.0000
  band No.  band energies     occupation 
      1     -14.3966      2.00000
      2     -14.3303      2.00000
      3      -8.5991      2.00000
      4      -8.5518      2.00000
      5      -6.2200      2.00000
      6      -5.9081      2.00000
      7      -4.9330      2.00000
      8      -4.6734      2.00000
      9      -3.8109      2.00000
     10      -3.6135      2.00000
     11       0.8314      0.00000
     12       1.1048      0.00000
     13       1.9689      0.00000
     14       2.2397      0.00000

 k-point   110 :      -0.2667    0.4667    0.0000
  band No.  band energies     occupation 
      1     -14.4518      2.00000
      2     -14.3647      2.00000
      3      -8.7996      2.00000
      4      -8.7244      2.00000
      5      -5.8318      2.00000
      6      -5.4909      2.00000
      7      -4.6333      2.00000
      8      -4.3709      2.00000
      9      -3.7030      2.00000
     10      -3.4313      2.00000
     11       0.4843      0.00000
     12       0.8424      0.00000
     13       1.4122      0.00000
     14       1.6581      0.00000

 k-point   111 :      -0.2000    0.4667    0.0000
  band No.  band energies     occupation 
      1     -14.5054      2.00000
      2     -14.4022      2.00000
      3      -8.9745      2.00000
      4      -8.8775      2.00000
      5      -5.3571      2.00000
      6      -5.0340      2.00000
      7      -4.4362      2.00000
      8      -4.2019      2.00000
      9      -3.3626      2.00000
     10      -3.0648      2.00000
     11      -0.0293      0.00000
     12       0.3302      0.00000
     13       1.0093      0.00000
     14       1.2344      0.00000

 k-point   112 :      -0.1333    0.4667    0.0000
  band No.  band energies     occupation 
      1     -14.5498      2.00000
      2     -14.4352      2.00000
      3      -9.1072      2.00000
      4      -8.9952      2.00000
      5      -4.8442      2.00000
      6      -4.6618      2.00000
      7      -4.2445      2.00000
      8      -4.1254      2.00000
      9      -2.8488      2.00000
     10      -2.6418      2.00000
     11      -0.5545      0.00000
     12      -0.3206      0.00000
     13       0.7856      0.00000
     14       0.8845      0.00000

 k-point   113 :      -0.0667    0.4667    0.0000
  band No.  band energies     occupation 
      1     -14.5789      2.00000
      2     -14.4575      2.00000
      3      -9.1893      2.00000
      4      -9.0687      2.00000
      5      -4.5531      2.00000
      6      -4.4331      2.00000
      7      -4.0089      2.00000
      8      -3.8734      2.00000
      9      -2.4817      2.00000
     10      -2.3814      2.00000
     11      -0.8064      0.00000
     12      -0.6967      0.00000
     13       0.2856      0.00000
     14       0.5891      0.00000


--------------------------------------------------------------------------------------------------------


 soft charge-density along one line, spin component           1
         0         1         2         3         4         5         6         7         8         9
 total charge-density along one line
 
 pseudopotential strength for first ion, spin component:           1
 30.085 -23.436  -0.000  -0.089   0.035  -0.000  -0.141   0.055
-23.436  28.117   0.000   0.051  -0.019   0.000   0.082  -0.031
 -0.000   0.000   6.332   0.000   0.000   9.795   0.000   0.000
 -0.089   0.051   0.000   6.329   0.002   0.000   9.791   0.003
  0.035  -0.019   0.000   0.002   6.331   0.000   0.003   9.795
 -0.000   0.000   9.795   0.000   0.000  15.225   0.000   0.000
 -0.141   0.082   0.000   9.791   0.003   0.000  15.218   0.004
  0.055  -0.031   0.000   0.003   9.795   0.000   0.004  15.224
  0.000  -0.000   0.007   0.000  -0.000   0.011   0.000  -0.000
  0.000  -0.000  -0.020  -0.000   0.000  -0.031  -0.000   0.000
 -0.003   0.003   0.000  -0.023  -0.004   0.000  -0.035  -0.006
  0.003  -0.002   0.000   0.008  -0.020   0.000   0.013  -0.031
 -0.000   0.000   0.000  -0.000   0.008   0.000  -0.000   0.013
 total augmentation occupancy for first ion, spin component:           1
  2.025  -0.015  -0.000   0.238  -0.087   0.000  -0.042   0.016  -0.000  -0.000   0.023   0.002  -0.000
 -0.015   0.009  -0.000  -0.073   0.027   0.000   0.018  -0.006   0.000   0.000  -0.002   0.001  -0.000
 -0.000  -0.000   1.508   0.000  -0.000  -0.406  -0.000  -0.000   0.123  -0.043   0.000   0.000   0.000
  0.238  -0.073   0.000   1.840   0.000  -0.000  -0.486  -0.014   0.000  -0.000  -0.267  -0.018  -0.000
 -0.087   0.027  -0.000   0.000   1.491   0.000  -0.015  -0.395  -0.000  -0.000  -0.079  -0.045  -0.006
  0.000   0.000  -0.406  -0.000   0.000   0.118   0.000  -0.000  -0.033   0.012  -0.000  -0.000  -0.000
 -0.042   0.018  -0.000  -0.486  -0.015   0.000   0.140   0.007  -0.000   0.000   0.074   0.005   0.000
  0.016  -0.006  -0.000  -0.014  -0.395  -0.000   0.007   0.113   0.000  -0.000   0.021   0.012   0.002
 -0.000   0.000   0.123   0.000  -0.000  -0.033  -0.000   0.000   0.076   0.000   0.000  -0.000  -0.000
 -0.000   0.000  -0.043  -0.000  -0.000   0.012   0.000  -0.000   0.000   0.021  -0.000   0.000  -0.000
  0.023  -0.002   0.000  -0.267  -0.079  -0.000   0.074   0.021   0.000  -0.000   0.078   0.006   0.002
  0.002   0.001   0.000  -0.018  -0.045  -0.000   0.005   0.012  -0.000   0.000   0.006   0.022   0.001
 -0.000  -0.000   0.000  -0.000  -0.006  -0.000   0.000   0.002  -0.000  -0.000   0.002   0.001   0.017


------------------------ aborting loop because EDIFF is reached ----------------------------------------


    CHARGE:  cpu time    0.1658: real time    0.1659
    FORLOC:  cpu time    0.0017: real time    0.0017
    FORNL :  cpu time    0.3070: real time    0.3072
    STRESS:  cpu time    0.5904: real time    0.5915
    FORCOR:  cpu time    0.0384: real time    0.0385
    FORHAR:  cpu time    0.0099: real time    0.0099
    MIXING:  cpu time    0.0016: real time    0.0016
    OFIELD:  cpu time    0.0000: real time    0.0000

  FORCE on cell =-STRESS in cart. coord.  units (eV):
  Direction    XX          YY          ZZ          XY          YZ          ZX
  --------------------------------------------------------------------------------------
  Alpha Z     9.50422     9.50422     9.50422
  Ewald    1606.13909  1610.59190 -2064.01218     0.00000    -0.00000     0.00000
  Hartree  1727.11090  1728.75792 -1680.41506     0.00000    -0.00000    -0.00000
  E(xc)     -77.66414   -77.67727   -78.88706     0.00000     0.00000    -0.00000
  Local   -3585.98263 -3591.51404  3489.60076    -0.00000     0.00000     0.00000
  n-local   162.51608   162.70237   167.20943     0.00000    -0.00000     0.00000
  augment   -31.87674   -31.81965   -32.80217     0.00000     0.00000    -0.00000
  Kinetic   190.25123   189.45478   189.79883    -0.00000    -0.00000     0.00000
  Fock        0.00000     0.00000     0.00000     0.00000     0.00000     0.00000
  -------------------------------------------------------------------------------------
  Total      -0.00200     0.00022    -0.00323    -0.00000     0.00000     0.00000
  in kB      -0.00851     0.00093    -0.01376    -0.00000     0.00000     0.00000
  external pressure =       -0.01 kB  Pullay stress =        0.00 kB


 VOLUME and BASIS-vectors are now :
 -----------------------------------------------------------------------------
  energy-cutoff  :      600.00
  volume of cell :      376.22
      direct lattice vectors                 reciprocal lattice vectors
     4.382356765  0.000000000  0.000000000     0.228187720  0.000000000  0.000000000
     0.000000000  4.292477857  0.000000000     0.000000000  0.232965675  0.000000000
     0.000000000  0.000000000 20.000000000     0.000000000  0.000000000  0.050000000

  length of vectors
     4.382356765  4.292477857 20.000000000     0.228187720  0.232965675  0.050000000


 FORCES acting on ions
    electron-ion (+dipol)            ewald-force                    non-local-force                 convergence-correction
 -----------------------------------------------------------------------------------------------
   0.423E+01 -.244E-06 -.144E+03   -.572E+01 0.154E-14 0.148E+03   0.149E+01 0.114E-06 -.381E+01   -.373E-05 0.117E-06 0.461E-04
   0.423E+01 0.401E-06 0.144E+03   -.572E+01 -.391E-15 -.148E+03   0.149E+01 -.178E-06 0.381E+01   -.309E-05 -.255E-06 -.228E-04
   -.528E+01 0.672E-06 -.206E+03   0.572E+01 -.177E-14 0.208E+03   -.445E+00 -.296E-06 -.204E+01   0.178E-04 -.392E-06 0.975E-04
   -.528E+01 -.155E-05 0.206E+03   0.572E+01 0.349E-15 -.208E+03   -.445E+00 0.736E-06 0.204E+01   0.221E-04 0.106E-05 -.516E-04
 -----------------------------------------------------------------------------------------------
   -.209E+01 -.721E-06 -.877E-04   -.355E-14 -.275E-15 -.284E-13   0.209E+01 0.377E-06 0.113E-04   0.331E-04 0.533E-06 0.692E-04
 
 
 POSITION                                       TOTAL-FORCE (eV/Angst)
 -----------------------------------------------------------------------------------
      2.54722      3.21936     11.37486        -0.000498     -0.000000     -0.000330
      0.35604      1.07312      8.62514        -0.000498     -0.000000      0.000336
      0.14401      1.07312     11.34148         0.000496     -0.000000     -0.000494
      2.33519      3.21936      8.65852         0.000500      0.000000      0.000488
 -----------------------------------------------------------------------------------
    total drift:                               -0.000223      0.000000     -0.000007


--------------------------------------------------------------------------------------------------------



  FREE ENERGIE OF THE ION-ELECTRON SYSTEM (eV)
  ---------------------------------------------------
  free  energy   TOTEN  =       -16.26439682 eV

  energy  without entropy=      -16.26439682  energy(sigma->0) =      -16.26439682
 


--------------------------------------------------------------------------------------------------------


    POTLOK:  cpu time    0.0398: real time    0.0399


--------------------------------------------------------------------------------------------------------




--------------------------------------------------------------------------------------------------------


  
 reached required accuracy - stopping structural energy minimisation
 writing wavefunctions
     LOOP+:  cpu time   56.6083: real time   57.7160
    4ORBIT:  cpu time    0.0000: real time    0.0000

 total amount of memory used by VASP MPI-rank0    63465. kBytes
=======================================================================

   base      :      30000. kBytes
   nonl-proj :      12585. kBytes
   fftplans  :       2678. kBytes
   grid      :       4349. kBytes
   one-center:          8. kBytes
   wavefun   :      13845. kBytes
 
  
  
 General timing and accounting informations for this job:
 ========================================================
  
                  Total CPU time used (sec):       62.187
                            User time (sec):       61.492
                          System time (sec):        0.695
                         Elapsed time (sec):       67.694
  
                   Maximum memory used (kb):      215600.
                   Average memory used (kb):           0.
  
                          Minor page faults:       115996
                          Major page faults:          117
                 Voluntary context switches:        10350
