
     Program PWSCF v.6.6 starts on  8May2023 at 22:19:16 

     This program is part of the open-source Quantum ESPRESSO suite
     for quantum simulation of materials; please cite
         "P. Giannozzi et al., J. Phys.:Condens. Matter 21 395502 (2009);
         "P. Giannozzi et al., J. Phys.:Condens. Matter 29 465901 (2017);
          URL http://www.quantum-espresso.org", 
     in publications or presentations arising from this work. More details at
     http://www.quantum-espresso.org/quote

     Parallel version (MPI), running on    64 processors

     MPI processes distributed on     1 nodes
     K-points division:     npool     =       2
     R & G space division:  proc/nbgrp/npool/nimage =      32
     Fft bands division:     nmany     =       1
     Reading input from INCAR-bands.pw

     Current dimensions of program PWSCF are:
     Max number of different atomic species (ntypx) = 10
     Max number of k-points (npk) =  40000
     Max angular momentum in pseudopotentials (lmaxx) =  3

     Atomic positions and unit cell read from directory:
     ./wfc-out/bi2se3.save/
     Atomic positions from file used, from input discarded
 

     Subspace diagonalization in iterative solution of the eigenvalue problem:
     a serial algorithm will be used

     Message from routine setup:
     using ibrav=0 with symmetry is DISCOURAGED, use correct ibrav instead
 
     Parallelization info
     --------------------
     sticks:   dense  smooth     PW     G-vecs:    dense   smooth      PW
     Min          63      42     11                 5298     2882     416
     Max          64      43     12                 5309     2894     425
     Sum        2029    1345    379               169655    92305   13459
 


     bravais-lattice index     =            0
     lattice parameter (alat)  =       7.8197  a.u.
     unit-cell volume          =     955.3447 (a.u.)^3
     number of atoms/cell      =            5
     number of atomic types    =            2
     number of electrons       =       118.00
     number of Kohn-Sham states=          142
     kinetic-energy cutoff     =      80.0000  Ry
     charge density cutoff     =     480.0000  Ry
     Exchange-correlation= PBESOL
                           (   1   4  10   8   0   0   0)
     Non magnetic calculation with spin-orbit


     celldm(1)=   7.819688  celldm(2)=   0.000000  celldm(3)=   0.000000
     celldm(4)=   0.000000  celldm(5)=   0.000000  celldm(6)=   0.000000

     crystal axes: (cart. coord. in units of alat)
               a(1) = (  -0.500000  -0.866025   0.000000 )  
               a(2) = (   0.500000  -0.866025   0.000000 )  
               a(3) = (   0.000000   0.577350   2.307072 )  

     reciprocal axes: (cart. coord. in units 2 pi/alat)
               b(1) = ( -1.000000 -0.577350  0.144483 )  
               b(2) = (  1.000000 -0.577350  0.144483 )  
               b(3) = (  0.000000  0.000000  0.433450 )  


     PseudoPot. # 1 for Bi read from file:
     ./Bi.NC.FR.PBEsol.stringent.UPF
     MD5 check sum: 152c0073ae87c027bffe5b7893bf94e2
     Pseudo is Norm-conserving + core correction, Zval = 23.0
     Generated using ONCVPSP code by D. R. Hamann
     Using radial grid of 1562 points, 10 beta functions with: 
                l(1) =   0
                l(2) =   0
                l(3) =   1
                l(4) =   1
                l(5) =   1
                l(6) =   1
                l(7) =   2
                l(8) =   2
                l(9) =   2
               l(10) =   2

     PseudoPot. # 2 for Se read from file:
     ./Se.NC.FR.PBEsol.stringent.UPF
     MD5 check sum: 1272e4bed61b725e968c377fde61d6be
     Pseudo is Norm-conserving + core correction, Zval = 24.0
     Generated using ONCVPSP code by D. R. Hamann
     Using radial grid of 1214 points, 10 beta functions with: 
                l(1) =   0
                l(2) =   0
                l(3) =   1
                l(4) =   1
                l(5) =   1
                l(6) =   1
                l(7) =   2
                l(8) =   2
                l(9) =   2
               l(10) =   2

     atomic species   valence    mass     pseudopotential
        Bi            23.00   208.98040     Bi( 1.00)
        Se            24.00    78.96000     Se( 1.00)

     12 Sym. Ops., with inversion, found ( 8 have fractional translation)


                                    s                        frac. trans.

      isym =  1     identity                                     

 cryst.   s( 1) = (     1          0          0      )
                  (     0          1          0      )
                  (     0          0          1      )

 cart.    s( 1) = (  1.0000000  0.0000000  0.0000000 )
                  (  0.0000000  1.0000000 -0.0000000 )
                  (  0.0000000  0.0000000  1.0000000 )


      isym =  2     180 deg rotation - cart. axis [1,0,0]        

 cryst.   s( 2) = (     0         -1          0      )
                  (    -1          0          0      )
                  (     0          0         -1      )

 cart.    s( 2) = (  1.0000000  0.0000000  0.0000000 )
                  (  0.0000000 -1.0000000  0.0000000 )
                  (  0.0000000  0.0000000 -1.0000000 )


      isym =  3     120 deg rotation - cryst. axis [0,0,1]       

 cryst.   s( 3) = (    -1          1          0      )    f =(  0.5000000 )
                  (    -1          0          0      )       (  0.0000000 )
                  (     1          0          1      )       (  0.0000000 )

 cart.    s( 3) = ( -0.5000000 -0.8660252 -0.0000001 )    f =( -0.2500000 )
                  (  0.8660256 -0.5000000 -0.0000002 )       ( -0.4330127 )
                  (  0.0000000  0.0000000  1.0000000 )       (  0.0000000 )


      isym =  4     120 deg rotation - cryst. axis [0,0,-1]      

 cryst.   s( 4) = (     0         -1          0      )    f =(  0.0000000 )
                  (     1         -1          0      )       (  0.5000000 )
                  (     0          1          1      )       (  0.0000000 )

 cart.    s( 4) = ( -0.5000000  0.8660252  0.0000001 )    f =(  0.2500000 )
                  ( -0.8660256 -0.5000000 -0.0000002 )       ( -0.4330127 )
                  (  0.0000000  0.0000000  1.0000000 )       (  0.0000000 )


      isym =  5     180 deg rotation - cryst. axis [0,1,0]       

 cryst.   s( 5) = (    -1          1          0      )    f =(  0.0000000 )
                  (     0          1          0      )       (  0.5000000 )
                  (     0         -1         -1      )       (  0.0000000 )

 cart.    s( 5) = ( -0.5000000 -0.8660252 -0.0000001 )    f =(  0.2500000 )
                  ( -0.8660256  0.5000000  0.0000002 )       ( -0.4330127 )
                  (  0.0000000  0.0000000 -1.0000000 )       (  0.0000000 )


      isym =  6     180 deg rotation - cryst. axis [1,1,0]       

 cryst.   s( 6) = (     1          0          0      )    f =(  0.5000000 )
                  (     1         -1          0      )       (  0.0000000 )
                  (    -1          0         -1      )       (  0.0000000 )

 cart.    s( 6) = ( -0.5000000  0.8660252  0.0000001 )    f =( -0.2500000 )
                  (  0.8660256  0.5000000  0.0000002 )       ( -0.4330127 )
                  (  0.0000000  0.0000000 -1.0000000 )       (  0.0000000 )


      isym =  7     inversion                                    

 cryst.   s( 7) = (    -1          0          0      )
                  (     0         -1          0      )
                  (     0          0         -1      )

 cart.    s( 7) = ( -1.0000000  0.0000000  0.0000000 )
                  (  0.0000000 -1.0000000  0.0000000 )
                  (  0.0000000  0.0000000 -1.0000000 )


      isym =  8     inv. 180 deg rotation - cart. axis [1,0,0]   

 cryst.   s( 8) = (     0          1          0      )
                  (     1          0          0      )
                  (     0          0          1      )

 cart.    s( 8) = ( -1.0000000  0.0000000  0.0000000 )
                  (  0.0000000  1.0000000 -0.0000000 )
                  (  0.0000000  0.0000000  1.0000000 )


      isym =  9     inv. 120 deg rotation - cryst. axis [0,0,1]  

 cryst.   s( 9) = (     1         -1          0      )    f =(  0.5000000 )
                  (     1          0          0      )       (  0.0000000 )
                  (    -1          0         -1      )       (  0.0000000 )

 cart.    s( 9) = (  0.5000000  0.8660252  0.0000001 )    f =( -0.2500000 )
                  ( -0.8660256  0.5000000  0.0000002 )       ( -0.4330127 )
                  (  0.0000000  0.0000000 -1.0000000 )       (  0.0000000 )


      isym = 10     inv. 120 deg rotation - cryst. axis [0,0,-1] 

 cryst.   s(10) = (     0          1          0      )    f =(  0.0000000 )
                  (    -1          1          0      )       (  0.5000000 )
                  (     0         -1         -1      )       (  0.0000000 )

 cart.    s(10) = (  0.5000000 -0.8660252 -0.0000001 )    f =(  0.2500000 )
                  (  0.8660256  0.5000000  0.0000002 )       ( -0.4330127 )
                  (  0.0000000  0.0000000 -1.0000000 )       (  0.0000000 )


      isym = 11     inv. 180 deg rotation - cryst. axis [0,1,0]  

 cryst.   s(11) = (     1         -1          0      )    f =(  0.0000000 )
                  (     0         -1          0      )       (  0.5000000 )
                  (     0          1          1      )       (  0.0000000 )

 cart.    s(11) = (  0.5000000  0.8660252  0.0000001 )    f =(  0.2500000 )
                  (  0.8660256 -0.5000000 -0.0000002 )       ( -0.4330127 )
                  (  0.0000000  0.0000000  1.0000000 )       (  0.0000000 )


      isym = 12     inv. 180 deg rotation - cryst. axis [1,1,0]  

 cryst.   s(12) = (    -1          0          0      )    f =(  0.5000000 )
                  (    -1          1          0      )       (  0.0000000 )
                  (     1          0          1      )       (  0.0000000 )

 cart.    s(12) = (  0.5000000 -0.8660252 -0.0000001 )    f =( -0.2500000 )
                  ( -0.8660256 -0.5000000 -0.0000002 )       ( -0.4330127 )
                  (  0.0000000  0.0000000  1.0000000 )       (  0.0000000 )


   Cartesian axes

     site n.     atom                  positions (alat units)
         1           Bi  tau(   1) = (   0.0000000  -0.2886753   1.6080294  )
         2           Bi  tau(   2) = (   0.0000000  -0.8660255   0.6990429  )
         3           Se  tau(   3) = (   0.0000000   0.2886750   1.1535362  )
         4           Se  tau(   4) = (   0.0000000  -0.2886752   0.2722345  )
         5           Se  tau(   5) = (   0.0000000  -0.8660257   2.0348378  )

   Crystallographic axes

     site n.     atom                  positions (cryst. coord.)
         1           Bi  tau(   1) = (  0.3990000  0.3990000  0.6970000  )
         2           Bi  tau(   2) = (  0.6010000  0.6010000  0.3030000  )
         3           Se  tau(   3) = ( -0.0000000 -0.0000000  0.5000000  )
         4           Se  tau(   4) = (  0.2060000  0.2060000  0.1180000  )
         5           Se  tau(   5) = (  0.7940000  0.7940000  0.8820000  )

     number of k points=    81  Marzari-Vanderbilt smearing, width (Ry)=  0.0073
                       cart. coord. in units 2pi/alat
        k(    1) = (   0.0000000   0.0000000   0.0000000), wk =   0.0123457
        k(    2) = (   0.0000000   0.0000000   0.0108362), wk =   0.0123457
        k(    3) = (   0.0000000   0.0000000   0.0216725), wk =   0.0123457
        k(    4) = (   0.0000000   0.0000000   0.0325087), wk =   0.0123457
        k(    5) = (   0.0000000   0.0000000   0.0433450), wk =   0.0123457
        k(    6) = (   0.0000000   0.0000000   0.0541812), wk =   0.0123457
        k(    7) = (   0.0000000   0.0000000   0.0650175), wk =   0.0123457
        k(    8) = (   0.0000000   0.0000000   0.0758537), wk =   0.0123457
        k(    9) = (   0.0000000   0.0000000   0.0866900), wk =   0.0123457
        k(   10) = (   0.0000000   0.0000000   0.0975262), wk =   0.0123457
        k(   11) = (   0.0000000   0.0000000   0.1083624), wk =   0.0123457
        k(   12) = (   0.0000000   0.0000000   0.1191987), wk =   0.0123457
        k(   13) = (   0.0000000   0.0000000   0.1300349), wk =   0.0123457
        k(   14) = (   0.0000000   0.0000000   0.1408712), wk =   0.0123457
        k(   15) = (   0.0000000   0.0000000   0.1517074), wk =   0.0123457
        k(   16) = (   0.0000000   0.0000000   0.1625437), wk =   0.0123457
        k(   17) = (   0.0000000   0.0000000   0.1733799), wk =   0.0123457
        k(   18) = (   0.0000000   0.0000000   0.1842162), wk =   0.0123457
        k(   19) = (   0.0000000   0.0000000   0.1950524), wk =   0.0123457
        k(   20) = (   0.0000000   0.0000000   0.2058886), wk =   0.0123457
        k(   21) = (   0.0000000   0.0000000   0.2167249), wk =   0.0123457
        k(   22) = (   0.0000000  -0.0288675   0.2131128), wk =   0.0123457
        k(   23) = (   0.0000000  -0.0577350   0.2095007), wk =   0.0123457
        k(   24) = (   0.0000000  -0.0866025   0.2058886), wk =   0.0123457
        k(   25) = (   0.0000000  -0.1154700   0.2022766), wk =   0.0123457
        k(   26) = (   0.0000000  -0.1443376   0.1986645), wk =   0.0123457
        k(   27) = (   0.0000000  -0.1732051   0.1950524), wk =   0.0123457
        k(   28) = (   0.0000000  -0.2020726   0.1914403), wk =   0.0123457
        k(   29) = (   0.0000000  -0.2309401   0.1878282), wk =   0.0123457
        k(   30) = (   0.0000000  -0.2598076   0.1842161), wk =   0.0123457
        k(   31) = (   0.0000000  -0.2886751   0.1806040), wk =   0.0123457
        k(   32) = (   0.0000000  -0.3175426   0.1769920), wk =   0.0123457
        k(   33) = (   0.0000000  -0.3464101   0.1733799), wk =   0.0123457
        k(   34) = (   0.0000000  -0.3752777   0.1697678), wk =   0.0123457
        k(   35) = (   0.0000000  -0.4041452   0.1661557), wk =   0.0123457
        k(   36) = (   0.0000000  -0.4330127   0.1625436), wk =   0.0123457
        k(   37) = (   0.0000000  -0.4618802   0.1589315), wk =   0.0123457
        k(   38) = (   0.0000000  -0.4907477   0.1553195), wk =   0.0123457
        k(   39) = (   0.0000000  -0.5196152   0.1517074), wk =   0.0123457
        k(   40) = (   0.0000000  -0.5484827   0.1480953), wk =   0.0123457
        k(   41) = (   0.0000000  -0.5773502   0.1444832), wk =   0.0123457
        k(   42) = (   0.0000000  -0.5484827   0.1372590), wk =   0.0123457
        k(   43) = (   0.0000000  -0.5196152   0.1300349), wk =   0.0123457
        k(   44) = (   0.0000000  -0.4907477   0.1228107), wk =   0.0123457
        k(   45) = (   0.0000000  -0.4618802   0.1155866), wk =   0.0123457
        k(   46) = (   0.0000000  -0.4330127   0.1083624), wk =   0.0123457
        k(   47) = (   0.0000000  -0.4041452   0.1011382), wk =   0.0123457
        k(   48) = (   0.0000000  -0.3752777   0.0939141), wk =   0.0123457
        k(   49) = (   0.0000000  -0.3464101   0.0866899), wk =   0.0123457
        k(   50) = (   0.0000000  -0.3175426   0.0794658), wk =   0.0123457
        k(   51) = (   0.0000000  -0.2886751   0.0722416), wk =   0.0123457
        k(   52) = (   0.0000000  -0.2598076   0.0650174), wk =   0.0123457
        k(   53) = (   0.0000000  -0.2309401   0.0577933), wk =   0.0123457
        k(   54) = (   0.0000000  -0.2020726   0.0505691), wk =   0.0123457
        k(   55) = (   0.0000000  -0.1732051   0.0433450), wk =   0.0123457
        k(   56) = (   0.0000000  -0.1443376   0.0361208), wk =   0.0123457
        k(   57) = (   0.0000000  -0.1154700   0.0288966), wk =   0.0123457
        k(   58) = (   0.0000000  -0.0866025   0.0216725), wk =   0.0123457
        k(   59) = (   0.0000000  -0.0577350   0.0144483), wk =   0.0123457
        k(   60) = (   0.0000000  -0.0288675   0.0072242), wk =   0.0123457
        k(   61) = (   0.0000000   0.0000000   0.0000000), wk =   0.0123457
        k(   62) = (  -0.0250000  -0.0144338   0.0036121), wk =   0.0123457
        k(   63) = (  -0.0500000  -0.0288675   0.0072242), wk =   0.0123457
        k(   64) = (  -0.0750000  -0.0433013   0.0108362), wk =   0.0123457
        k(   65) = (  -0.1000000  -0.0577350   0.0144483), wk =   0.0123457
        k(   66) = (  -0.1250000  -0.0721688   0.0180604), wk =   0.0123457
        k(   67) = (  -0.1500000  -0.0866025   0.0216725), wk =   0.0123457
        k(   68) = (  -0.1750000  -0.1010363   0.0252846), wk =   0.0123457
        k(   69) = (  -0.2000000  -0.1154700   0.0288966), wk =   0.0123457
        k(   70) = (  -0.2250000  -0.1299038   0.0325087), wk =   0.0123457
        k(   71) = (  -0.2500000  -0.1443376   0.0361208), wk =   0.0123457
        k(   72) = (  -0.2750001  -0.1587713   0.0397329), wk =   0.0123457
        k(   73) = (  -0.3000001  -0.1732051   0.0433450), wk =   0.0123457
        k(   74) = (  -0.3250001  -0.1876388   0.0469570), wk =   0.0123457
        k(   75) = (  -0.3500001  -0.2020726   0.0505691), wk =   0.0123457
        k(   76) = (  -0.3750001  -0.2165063   0.0541812), wk =   0.0123457
        k(   77) = (  -0.4000001  -0.2309401   0.0577933), wk =   0.0123457
        k(   78) = (  -0.4250001  -0.2453738   0.0614054), wk =   0.0123457
        k(   79) = (  -0.4500001  -0.2598076   0.0650174), wk =   0.0123457
        k(   80) = (  -0.4750001  -0.2742414   0.0686295), wk =   0.0123457
        k(   81) = (  -0.5000001  -0.2886751   0.0722416), wk =   0.0123457

                       cryst. coord.
        k(    1) = (   0.0000000   0.0000000   0.0000000), wk =   0.0123457
        k(    2) = (   0.0000000   0.0000000   0.0250000), wk =   0.0123457
        k(    3) = (   0.0000000   0.0000000   0.0500000), wk =   0.0123457
        k(    4) = (   0.0000000   0.0000000   0.0750000), wk =   0.0123457
        k(    5) = (   0.0000000   0.0000000   0.1000000), wk =   0.0123457
        k(    6) = (   0.0000000   0.0000000   0.1250000), wk =   0.0123457
        k(    7) = (   0.0000000   0.0000000   0.1500000), wk =   0.0123457
        k(    8) = (   0.0000000   0.0000000   0.1750000), wk =   0.0123457
        k(    9) = (   0.0000000   0.0000000   0.2000000), wk =   0.0123457
        k(   10) = (   0.0000000   0.0000000   0.2250000), wk =   0.0123457
        k(   11) = (   0.0000000   0.0000000   0.2500000), wk =   0.0123457
        k(   12) = (   0.0000000   0.0000000   0.2750000), wk =   0.0123457
        k(   13) = (   0.0000000   0.0000000   0.3000000), wk =   0.0123457
        k(   14) = (   0.0000000   0.0000000   0.3250000), wk =   0.0123457
        k(   15) = (   0.0000000   0.0000000   0.3500000), wk =   0.0123457
        k(   16) = (   0.0000000   0.0000000   0.3750000), wk =   0.0123457
        k(   17) = (   0.0000000   0.0000000   0.4000000), wk =   0.0123457
        k(   18) = (   0.0000000   0.0000000   0.4250000), wk =   0.0123457
        k(   19) = (   0.0000000   0.0000000   0.4500000), wk =   0.0123457
        k(   20) = (   0.0000000   0.0000000   0.4750000), wk =   0.0123457
        k(   21) = (   0.0000000   0.0000000   0.5000000), wk =   0.0123457
        k(   22) = (   0.0250000   0.0250000   0.4750000), wk =   0.0123457
        k(   23) = (   0.0500000   0.0500000   0.4500000), wk =   0.0123457
        k(   24) = (   0.0750000   0.0750000   0.4250000), wk =   0.0123457
        k(   25) = (   0.1000000   0.1000000   0.4000000), wk =   0.0123457
        k(   26) = (   0.1250000   0.1250000   0.3750000), wk =   0.0123457
        k(   27) = (   0.1500000   0.1500000   0.3500000), wk =   0.0123457
        k(   28) = (   0.1750000   0.1750000   0.3250000), wk =   0.0123457
        k(   29) = (   0.2000000   0.2000000   0.3000000), wk =   0.0123457
        k(   30) = (   0.2250000   0.2250000   0.2750000), wk =   0.0123457
        k(   31) = (   0.2500000   0.2500000   0.2500000), wk =   0.0123457
        k(   32) = (   0.2750000   0.2750000   0.2250000), wk =   0.0123457
        k(   33) = (   0.3000000   0.3000000   0.2000000), wk =   0.0123457
        k(   34) = (   0.3250000   0.3250000   0.1750000), wk =   0.0123457
        k(   35) = (   0.3500000   0.3500000   0.1500000), wk =   0.0123457
        k(   36) = (   0.3750000   0.3750000   0.1250000), wk =   0.0123457
        k(   37) = (   0.4000000   0.4000000   0.1000000), wk =   0.0123457
        k(   38) = (   0.4250000   0.4250000   0.0750000), wk =   0.0123457
        k(   39) = (   0.4500000   0.4500000   0.0500000), wk =   0.0123457
        k(   40) = (   0.4750000   0.4750000   0.0250000), wk =   0.0123457
        k(   41) = (   0.5000000   0.5000000   0.0000000), wk =   0.0123457
        k(   42) = (   0.4750000   0.4750000  -0.0000000), wk =   0.0123457
        k(   43) = (   0.4500000   0.4500000  -0.0000000), wk =   0.0123457
        k(   44) = (   0.4250000   0.4250000   0.0000000), wk =   0.0123457
        k(   45) = (   0.4000000   0.4000000   0.0000000), wk =   0.0123457
        k(   46) = (   0.3750000   0.3750000  -0.0000000), wk =   0.0123457
        k(   47) = (   0.3500000   0.3500000  -0.0000000), wk =   0.0123457
        k(   48) = (   0.3250000   0.3250000  -0.0000000), wk =   0.0123457
        k(   49) = (   0.3000000   0.3000000  -0.0000000), wk =   0.0123457
        k(   50) = (   0.2750000   0.2750000  -0.0000000), wk =   0.0123457
        k(   51) = (   0.2500000   0.2500000   0.0000000), wk =   0.0123457
        k(   52) = (   0.2250000   0.2250000  -0.0000000), wk =   0.0123457
        k(   53) = (   0.2000000   0.2000000   0.0000000), wk =   0.0123457
        k(   54) = (   0.1750000   0.1750000  -0.0000000), wk =   0.0123457
        k(   55) = (   0.1500000   0.1500000  -0.0000000), wk =   0.0123457
        k(   56) = (   0.1250000   0.1250000   0.0000000), wk =   0.0123457
        k(   57) = (   0.1000000   0.1000000   0.0000000), wk =   0.0123457
        k(   58) = (   0.0750000   0.0750000  -0.0000000), wk =   0.0123457
        k(   59) = (   0.0500000   0.0500000   0.0000000), wk =   0.0123457
        k(   60) = (   0.0250000   0.0250000  -0.0000000), wk =   0.0123457
        k(   61) = (   0.0000000   0.0000000   0.0000000), wk =   0.0123457
        k(   62) = (   0.0250000   0.0000000   0.0000000), wk =   0.0123457
        k(   63) = (   0.0500000   0.0000000   0.0000000), wk =   0.0123457
        k(   64) = (   0.0750000   0.0000000  -0.0000000), wk =   0.0123457
        k(   65) = (   0.1000000   0.0000000   0.0000000), wk =   0.0123457
        k(   66) = (   0.1250000   0.0000000   0.0000000), wk =   0.0123457
        k(   67) = (   0.1500000   0.0000000  -0.0000000), wk =   0.0123457
        k(   68) = (   0.1750000   0.0000000  -0.0000000), wk =   0.0123457
        k(   69) = (   0.2000000   0.0000000   0.0000000), wk =   0.0123457
        k(   70) = (   0.2250000   0.0000000  -0.0000000), wk =   0.0123457
        k(   71) = (   0.2500000   0.0000000   0.0000000), wk =   0.0123457
        k(   72) = (   0.2750000   0.0000000  -0.0000000), wk =   0.0123457
        k(   73) = (   0.3000000   0.0000000  -0.0000000), wk =   0.0123457
        k(   74) = (   0.3250000   0.0000000  -0.0000000), wk =   0.0123457
        k(   75) = (   0.3500000   0.0000000  -0.0000000), wk =   0.0123457
        k(   76) = (   0.3750000   0.0000000  -0.0000000), wk =   0.0123457
        k(   77) = (   0.4000000   0.0000000   0.0000000), wk =   0.0123457
        k(   78) = (   0.4250000   0.0000000   0.0000000), wk =   0.0123457
        k(   79) = (   0.4500000   0.0000000  -0.0000000), wk =   0.0123457
        k(   80) = (   0.4750000   0.0000000  -0.0000000), wk =   0.0123457
        k(   81) = (   0.5000000   0.0000000   0.0000000), wk =   0.0123457

     Dense  grid:   169655 G-vectors     FFT dimensions: (  60,  60, 135)

     Smooth grid:    92305 G-vectors     FFT dimensions: (  48,  48, 108)

     Dynamical RAM for                 wfc:       1.56 MB

     Dynamical RAM for     wfc (w. buffer):       1.56 MB

     Dynamical RAM for           str. fact:       0.16 MB

     Dynamical RAM for           local pot:       0.00 MB

     Dynamical RAM for          nlocal pot:       0.93 MB

     Dynamical RAM for                qrad:       9.21 MB

     Dynamical RAM for          rho,v,vnew:       2.62 MB

     Dynamical RAM for           G-vectors:       0.33 MB

     Dynamical RAM for          h,s,v(r/c):       3.69 MB

     Dynamical RAM for          <psi|beta>:       0.74 MB

     Dynamical RAM for                 psi:       3.12 MB

     Dynamical RAM for                hpsi:       3.12 MB

     Dynamical RAM for      wfcinit/wfcrot:       2.80 MB

     Estimated static dynamical RAM per process >      16.15 MB

     Estimated max dynamical RAM per process >      26.82 MB

     Estimated total dynamical RAM >       1.68 GB

     Check: negative core charge=   -0.000002

     The potential is recalculated from file :
     ./wfc-out/bi2se3.save/charge-density

     Starting wfcs are  130 randomized atomic wfcs +   12 random wfcs

     Band Structure Calculation
     Davidson diagonalization with overlap

     Computing kpt #:     1  of    41 on this pool
     total cpu time spent up to now is       12.7 secs

     Computing kpt #:     2  of    41 on this pool
     total cpu time spent up to now is       19.4 secs

     Computing kpt #:     3  of    41 on this pool
     total cpu time spent up to now is       26.4 secs

     Computing kpt #:     4  of    41 on this pool
     total cpu time spent up to now is       33.5 secs

     Computing kpt #:     5  of    41 on this pool
     total cpu time spent up to now is       40.6 secs

     Computing kpt #:     6  of    41 on this pool
     total cpu time spent up to now is       47.6 secs

     Computing kpt #:     7  of    41 on this pool
     total cpu time spent up to now is       54.4 secs

     Computing kpt #:     8  of    41 on this pool
     total cpu time spent up to now is       61.4 secs

     Computing kpt #:     9  of    41 on this pool
     total cpu time spent up to now is       68.4 secs

     Computing kpt #:    10  of    41 on this pool
     total cpu time spent up to now is       75.3 secs

     Computing kpt #:    11  of    41 on this pool
     total cpu time spent up to now is       82.2 secs

     Computing kpt #:    12  of    41 on this pool
     total cpu time spent up to now is       89.1 secs

     Computing kpt #:    13  of    41 on this pool
     total cpu time spent up to now is       96.0 secs

     Computing kpt #:    14  of    41 on this pool
     total cpu time spent up to now is      102.8 secs

     Computing kpt #:    15  of    41 on this pool
     total cpu time spent up to now is      110.5 secs

     Computing kpt #:    16  of    41 on this pool
     total cpu time spent up to now is      118.3 secs

     Computing kpt #:    17  of    41 on this pool
     total cpu time spent up to now is      127.2 secs

     Computing kpt #:    18  of    41 on this pool
     total cpu time spent up to now is      135.4 secs

     Computing kpt #:    19  of    41 on this pool
     total cpu time spent up to now is      143.2 secs

     Computing kpt #:    20  of    41 on this pool
     total cpu time spent up to now is      150.3 secs

     Computing kpt #:    21  of    41 on this pool
     total cpu time spent up to now is      157.3 secs

     Computing kpt #:    22  of    41 on this pool
     total cpu time spent up to now is      164.9 secs

     Computing kpt #:    23  of    41 on this pool
     total cpu time spent up to now is      173.8 secs

     Computing kpt #:    24  of    41 on this pool
     total cpu time spent up to now is      180.9 secs

     Computing kpt #:    25  of    41 on this pool
     total cpu time spent up to now is      187.5 secs

     Computing kpt #:    26  of    41 on this pool
     total cpu time spent up to now is      194.2 secs

     Computing kpt #:    27  of    41 on this pool
     total cpu time spent up to now is      200.1 secs

     Computing kpt #:    28  of    41 on this pool
     total cpu time spent up to now is      206.0 secs

     Computing kpt #:    29  of    41 on this pool
     total cpu time spent up to now is      212.0 secs

     Computing kpt #:    30  of    41 on this pool
     total cpu time spent up to now is      217.9 secs

     Computing kpt #:    31  of    41 on this pool
     total cpu time spent up to now is      223.9 secs

     Computing kpt #:    32  of    41 on this pool
     total cpu time spent up to now is      230.0 secs

     Computing kpt #:    33  of    41 on this pool
     total cpu time spent up to now is      236.2 secs

     Computing kpt #:    34  of    41 on this pool
     total cpu time spent up to now is      243.0 secs

     Computing kpt #:    35  of    41 on this pool
     total cpu time spent up to now is      249.7 secs

     Computing kpt #:    36  of    41 on this pool
     total cpu time spent up to now is      256.4 secs

     Computing kpt #:    37  of    41 on this pool
     total cpu time spent up to now is      263.0 secs

     Computing kpt #:    38  of    41 on this pool
     total cpu time spent up to now is      269.6 secs

     Computing kpt #:    39  of    41 on this pool
     total cpu time spent up to now is      276.2 secs

     Computing kpt #:    40  of    41 on this pool
     total cpu time spent up to now is      282.6 secs

     Computing kpt #:    41  of    41 on this pool
     total cpu time spent up to now is      289.1 secs

     ethr =  2.54E-12,  avg # of iterations = 44.8

     total cpu time spent up to now is      289.1 secs

     End of band structure calculation

          k = 0.0000 0.0000 0.0000 ( 11517 PWs)   bands (ev):

  -197.4726-197.4726-197.4079-197.4079-197.4079-197.4079-142.3809-142.3809
  -142.3809-142.3809-140.9324-140.9324-140.8637-140.8637-140.8609-140.8609
  -135.0674-135.0674-135.0451-135.0451-135.0005-135.0005-134.9986-134.9986
  -134.9733-134.9733-134.9701-134.9701 -98.9909 -98.9909 -98.9909 -98.9909
   -74.2626 -74.2626 -74.2626 -74.2626 -74.2586 -74.2586 -74.2586 -74.2586
   -37.7210 -37.7210 -37.6910 -37.6910 -37.6417 -37.6417 -37.6391 -37.6391
   -37.6071 -37.6071 -37.6017 -37.6017 -36.8288 -36.8288 -36.8161 -36.8161
   -36.7900 -36.7900 -36.7491 -36.7491 -36.7477 -36.7477 -36.7349 -36.7349
   -36.7299 -36.7299 -36.7045 -36.7045 -36.6992 -36.6992 -13.9330 -13.9330
   -13.9327 -13.9327 -13.9213 -13.9213 -13.9192 -13.9192 -10.9494 -10.9494
   -10.9470 -10.9470 -10.9300 -10.9300 -10.9285 -10.9285 -10.9264 -10.9264
   -10.9258 -10.9258  -3.8199  -3.8199  -2.5959  -2.5959  -2.5885  -2.5885
     0.7877   0.7877   1.5679   1.5679   7.7929   7.7929   8.0016   8.0016
     8.6497   8.6497   8.7529   8.7529   8.8163   8.8163   9.1253   9.1253
     9.4348   9.4348   9.8293   9.8293  10.0723  10.0723  10.6676  10.6676
    11.6864  11.6864  11.8546  11.8546  12.4550  12.4550  13.6338  13.6338
    14.0476  14.0476  16.2802  16.2802  16.8324  16.8324  17.4700  17.4700
    17.5468  17.5468  17.6576  17.6576  18.1804  18.1804

          k = 0.0000 0.0000 0.0108 ( 11529 PWs)   bands (ev):

  -197.4726-197.4726-197.4079-197.4079-197.4079-197.4079-142.3809-142.3809
  -142.3809-142.3809-140.9329-140.9329-140.8640-140.8640-140.8615-140.8615
  -135.0679-135.0679-135.0455-135.0455-135.0009-135.0009-134.9992-134.9992
  -134.9736-134.9736-134.9706-134.9706 -98.9909 -98.9909 -98.9909 -98.9909
   -74.2626 -74.2626 -74.2626 -74.2626 -74.2586 -74.2586 -74.2586 -74.2586
   -37.7219 -37.7219 -37.6917 -37.6917 -37.6425 -37.6425 -37.6402 -37.6402
   -37.6076 -37.6076 -37.6026 -37.6026 -36.8294 -36.8294 -36.8174 -36.8174
   -36.7905 -36.7905 -36.7498 -36.7498 -36.7484 -36.7484 -36.7359 -36.7359
   -36.7315 -36.7315 -36.7049 -36.7049 -36.6998 -36.6998 -13.9330 -13.9330
   -13.9327 -13.9327 -13.9213 -13.9213 -13.9192 -13.9192 -10.9494 -10.9494
   -10.9470 -10.9470 -10.9300 -10.9300 -10.9285 -10.9285 -10.9264 -10.9264
   -10.9258 -10.9258  -3.8193  -3.8193  -2.6399  -2.6399  -2.5442  -2.5442
     0.7827   0.7827   1.5723   1.5723   7.7847   7.7847   8.0090   8.0090
     8.6450   8.6450   8.7588   8.7588   8.8158   8.8158   9.1258   9.1258
     9.4316   9.4316   9.8284   9.8284  10.0733  10.0733  10.6676  10.6676
    11.6897  11.6897  11.8524  11.8524  12.4566  12.4566  13.6317  13.6317
    14.0453  14.0453  16.2772  16.2772  16.8330  16.8330  17.4658  17.4658
    17.5423  17.5423  17.6660  17.6660  18.1873  18.1873

          k = 0.0000 0.0000 0.0217 ( 11538 PWs)   bands (ev):

  -197.4726-197.4726-197.4079-197.4079-197.4079-197.4079-142.3809-142.3809
  -142.3809-142.3809-140.9333-140.9333-140.8647-140.8647-140.8616-140.8616
  -135.0683-135.0683-135.0458-135.0458-135.0020-135.0020-134.9988-134.9988
  -134.9738-134.9738-134.9711-134.9711 -98.9909 -98.9909 -98.9909 -98.9909
   -74.2626 -74.2626 -74.2626 -74.2626 -74.2586 -74.2586 -74.2586 -74.2586
   -37.7226 -37.7226 -37.6925 -37.6925 -37.6448 -37.6448 -37.6390 -37.6390
   -37.6082 -37.6082 -37.6034 -37.6034 -36.8295 -36.8295 -36.8190 -36.8190
   -36.7909 -36.7909 -36.7519 -36.7519 -36.7463 -36.7463 -36.7383 -36.7383
   -36.7320 -36.7320 -36.7048 -36.7048 -36.7006 -36.7006 -13.9330 -13.9330
   -13.9327 -13.9327 -13.9213 -13.9213 -13.9192 -13.9192 -10.9494 -10.9494
   -10.9470 -10.9470 -10.9300 -10.9300 -10.9285 -10.9285 -10.9264 -10.9264
   -10.9258 -10.9258  -3.8175  -3.8175  -2.6867  -2.6867  -2.4962  -2.4962
     0.7680   0.7680   1.5850   1.5850   7.7639   7.7639   8.0289   8.0289
     8.6340   8.6340   8.7746   8.7746   8.8148   8.8148   9.1279   9.1279
     9.4224   9.4224   9.8258   9.8258  10.0760  10.0760  10.6682  10.6682
    11.6994  11.6994  11.8461  11.8461  12.4617  12.4617  13.6257  13.6257
    14.0384  14.0384  16.2682  16.2682  16.8352  16.8352  17.4536  17.4536
    17.5294  17.5294  17.6908  17.6908  18.2063  18.2063

          k = 0.0000 0.0000 0.0325 ( 11538 PWs)   bands (ev):

  -197.4726-197.4726-197.4079-197.4079-197.4079-197.4079-142.3809-142.3809
  -142.3809-142.3809-140.9333-140.9333-140.8647-140.8647-140.8616-140.8616
  -135.0683-135.0683-135.0459-135.0459-135.0019-135.0019-134.9989-134.9989
  -134.9738-134.9738-134.9712-134.9712 -98.9909 -98.9909 -98.9909 -98.9909
   -74.2626 -74.2626 -74.2626 -74.2626 -74.2586 -74.2586 -74.2586 -74.2586
   -37.7226 -37.7226 -37.6925 -37.6925 -37.6448 -37.6448 -37.6391 -37.6391
   -37.6082 -37.6082 -37.6035 -37.6035 -36.8295 -36.8295 -36.8190 -36.8190
   -36.7909 -36.7909 -36.7519 -36.7519 -36.7464 -36.7464 -36.7382 -36.7382
   -36.7321 -36.7321 -36.7048 -36.7048 -36.7006 -36.7006 -13.9330 -13.9330
   -13.9327 -13.9327 -13.9213 -13.9213 -13.9192 -13.9192 -10.9494 -10.9494
   -10.9470 -10.9470 -10.9300 -10.9300 -10.9285 -10.9285 -10.9264 -10.9264
   -10.9258 -10.9258  -3.8145  -3.8145  -2.7329  -2.7329  -2.4480  -2.4480
     0.7447   0.7447   1.6053   1.6053   7.7358   7.7358   8.0557   8.0557
     8.6209   8.6209   8.7960   8.7960   8.8139   8.8139   9.1307   9.1307
     9.4077   9.4077   9.8223   9.8223  10.0795  10.0795  10.6695  10.6695
    11.7151  11.7151  11.8373  11.8373  12.4700  12.4700  13.6168  13.6168
    14.0277  14.0277  16.2544  16.2544  16.8395  16.8395  17.4356  17.4356
    17.5105  17.5105  17.7308  17.7308  18.2349  18.2349

          k = 0.0000 0.0000 0.0433 ( 11538 PWs)   bands (ev):

  -197.4726-197.4726-197.4079-197.4079-197.4079-197.4079-142.3809-142.3809
  -142.3809-142.3809-140.9333-140.9333-140.8647-140.8647-140.8616-140.8616
  -135.0683-135.0683-135.0459-135.0459-135.0019-135.0019-134.9989-134.9989
  -134.9737-134.9737-134.9712-134.9712 -98.9909 -98.9909 -98.9909 -98.9909
   -74.2626 -74.2626 -74.2626 -74.2626 -74.2586 -74.2586 -74.2586 -74.2586
   -37.7226 -37.7226 -37.6925 -37.6925 -37.6447 -37.6447 -37.6392 -37.6392
   -37.6081 -37.6081 -37.6035 -37.6035 -36.8295 -36.8295 -36.8190 -36.8190
   -36.7909 -36.7909 -36.7518 -36.7518 -36.7465 -36.7465 -36.7381 -36.7381
   -36.7322 -36.7322 -36.7048 -36.7048 -36.7007 -36.7007 -13.9330 -13.9330
   -13.9327 -13.9327 -13.9213 -13.9213 -13.9192 -13.9192 -10.9494 -10.9494
   -10.9470 -10.9470 -10.9300 -10.9300 -10.9285 -10.9285 -10.9264 -10.9264
   -10.9259 -10.9259  -3.8103  -3.8103  -2.7783  -2.7783  -2.4000  -2.4000
     0.7144   0.7144   1.6313   1.6313   7.7037   7.7037   8.0861   8.0861
     8.6074   8.6074   8.8127   8.8127   8.8210   8.8210   9.1345   9.1345
     9.3882   9.3882   9.8175   9.8175  10.0827  10.0827  10.6724  10.6724
    11.7364  11.7364  11.8250  11.8250  12.4814  12.4814  13.6044  13.6044
    14.0129  14.0129  16.2360  16.2360  16.8471  16.8471  17.4128  17.4128
    17.4868  17.4868  17.7841  17.7841  18.2727  18.2727

          k = 0.0000 0.0000 0.0542 ( 11541 PWs)   bands (ev):

  -197.4726-197.4726-197.4079-197.4079-197.4079-197.4079-142.3809-142.3809
  -142.3809-142.3809-140.9334-140.9334-140.8653-140.8653-140.8613-140.8613
  -135.0684-135.0684-135.0460-135.0460-135.0026-135.0026-134.9984-134.9984
  -134.9741-134.9741-134.9711-134.9711 -98.9909 -98.9909 -98.9909 -98.9909
   -74.2626 -74.2626 -74.2626 -74.2626 -74.2586 -74.2586 -74.2586 -74.2586
   -37.7228 -37.7228 -37.6927 -37.6927 -37.6460 -37.6460 -37.6382 -37.6382
   -37.6088 -37.6088 -37.6033 -37.6033 -36.8298 -36.8298 -36.8189 -36.8189
   -36.7912 -36.7912 -36.7533 -36.7533 -36.7456 -36.7456 -36.7388 -36.7388
   -36.7314 -36.7314 -36.7055 -36.7055 -36.7006 -36.7006 -13.9330 -13.9330
   -13.9327 -13.9327 -13.9213 -13.9213 -13.9192 -13.9192 -10.9494 -10.9494
   -10.9470 -10.9470 -10.9300 -10.9300 -10.9285 -10.9285 -10.9264 -10.9264
   -10.9259 -10.9259  -3.8049  -3.8049  -2.8228  -2.8228  -2.3523  -2.3523
     0.6787   0.6787   1.6617   1.6617   7.6696   7.6696   8.1179   8.1179
     8.5948   8.5948   8.8112   8.8112   8.8485   8.8485   9.1393   9.1393
     9.3644   9.3644   9.8113   9.8113  10.0843  10.0843  10.6782  10.6782
    11.7624  11.7624  11.8096  11.8096  12.4959  12.4959  13.5885  13.5885
    13.9943  13.9943  16.2137  16.2137  16.8589  16.8589  17.3867  17.3867
    17.4602  17.4602  17.8483  17.8483  18.3183  18.3183

          k = 0.0000 0.0000 0.0650 ( 11541 PWs)   bands (ev):

  -197.4726-197.4726-197.4079-197.4079-197.4079-197.4079-142.3809-142.3809
  -142.3809-142.3809-140.9334-140.9334-140.8648-140.8648-140.8617-140.8617
  -135.0683-135.0683-135.0460-135.0460-135.0020-135.0020-134.9988-134.9988
  -134.9739-134.9739-134.9714-134.9714 -98.9909 -98.9909 -98.9909 -98.9909
   -74.2626 -74.2626 -74.2626 -74.2626 -74.2586 -74.2586 -74.2586 -74.2586
   -37.7227 -37.7227 -37.6928 -37.6928 -37.6449 -37.6449 -37.6389 -37.6389
   -37.6084 -37.6084 -37.6039 -37.6039 -36.8296 -36.8296 -36.8190 -36.8190
   -36.7914 -36.7914 -36.7523 -36.7523 -36.7459 -36.7459 -36.7378 -36.7378
   -36.7327 -36.7327 -36.7053 -36.7053 -36.7010 -36.7010 -13.9330 -13.9330
   -13.9327 -13.9327 -13.9213 -13.9213 -13.9192 -13.9192 -10.9494 -10.9494
   -10.9470 -10.9470 -10.9300 -10.9300 -10.9285 -10.9285 -10.9264 -10.9264
   -10.9259 -10.9259  -3.7985  -3.7985  -2.8662  -2.8662  -2.3051  -2.3051
     0.6391   0.6391   1.6949   1.6949   7.6355   7.6355   8.1496   8.1496
     8.5840   8.5840   8.8095   8.8095   8.8774   8.8774   9.1449   9.1449
     9.3376   9.3376   9.8042   9.8042  10.0832  10.0832  10.6876  10.6876
    11.7854  11.7854  11.7983  11.7983  12.5132  12.5132  13.5695  13.5695
    13.9722  13.9722  16.1892  16.1892  16.8754  16.8754  17.3587  17.3587
    17.4321  17.4321  17.9215  17.9215  18.3702  18.3702

          k = 0.0000 0.0000 0.0759 ( 11529 PWs)   bands (ev):

  -197.4726-197.4726-197.4079-197.4079-197.4079-197.4079-142.3809-142.3809
  -142.3809-142.3809-140.9329-140.9329-140.8639-140.8639-140.8616-140.8616
  -135.0676-135.0676-135.0458-135.0458-135.0007-135.0007-134.9986-134.9986
  -134.9735-134.9735-134.9713-134.9713 -98.9909 -98.9909 -98.9909 -98.9909
   -74.2626 -74.2626 -74.2626 -74.2626 -74.2586 -74.2586 -74.2586 -74.2586
   -37.7215 -37.7215 -37.6924 -37.6924 -37.6423 -37.6423 -37.6387 -37.6387
   -37.6077 -37.6077 -37.6038 -37.6038 -36.8283 -36.8283 -36.8182 -36.8182
   -36.7912 -36.7912 -36.7496 -36.7496 -36.7457 -36.7457 -36.7361 -36.7361
   -36.7323 -36.7323 -36.7050 -36.7050 -36.7009 -36.7009 -13.9330 -13.9330
   -13.9327 -13.9327 -13.9213 -13.9213 -13.9192 -13.9192 -10.9494 -10.9494
   -10.9470 -10.9470 -10.9300 -10.9300 -10.9285 -10.9285 -10.9264 -10.9264
   -10.9259 -10.9259  -3.7910  -3.7910  -2.9084  -2.9084  -2.2587  -2.2587
     0.5970   0.5970   1.7297   1.7297   7.6011   7.6011   8.1808   8.1808
     8.5750   8.5750   8.8078   8.8078   8.9080   8.9080   9.1513   9.1513
     9.3089   9.3089   9.7964   9.7964  10.0790  10.0790  10.7022  10.7022
    11.7671  11.7671  11.8289  11.8289  12.5330  12.5330  13.5477  13.5477
    13.9470  13.9470  16.1632  16.1632  16.8972  16.8972  17.3299  17.3299
    17.4037  17.4037  18.0012  18.0012  18.4279  18.4279

          k = 0.0000 0.0000 0.0867 ( 11529 PWs)   bands (ev):

  -197.4726-197.4726-197.4079-197.4079-197.4079-197.4079-142.3809-142.3809
  -142.3809-142.3809-140.9329-140.9329-140.8638-140.8638-140.8616-140.8616
  -135.0676-135.0676-135.0458-135.0458-135.0006-135.0006-134.9986-134.9986
  -134.9735-134.9735-134.9713-134.9713 -98.9909 -98.9909 -98.9909 -98.9909
   -74.2626 -74.2626 -74.2626 -74.2626 -74.2586 -74.2586 -74.2586 -74.2586
   -37.7214 -37.7214 -37.6924 -37.6924 -37.6422 -37.6422 -37.6387 -37.6387
   -37.6076 -37.6076 -37.6038 -37.6038 -36.8282 -36.8282 -36.8181 -36.8181
   -36.7911 -36.7911 -36.7495 -36.7495 -36.7457 -36.7457 -36.7360 -36.7360
   -36.7323 -36.7323 -36.7049 -36.7049 -36.7010 -36.7010 -13.9330 -13.9330
   -13.9327 -13.9327 -13.9213 -13.9213 -13.9192 -13.9192 -10.9494 -10.9494
   -10.9470 -10.9470 -10.9299 -10.9299 -10.9286 -10.9286 -10.9264 -10.9264
   -10.9259 -10.9259  -3.7825  -3.7825  -2.9492  -2.9492  -2.2135  -2.2135
     0.5535   0.5535   1.7650   1.7650   7.5675   7.5675   8.2103   8.2103
     8.5687   8.5687   8.8058   8.8058   8.9393   8.9393   9.1583   9.1583
     9.2780   9.2780   9.7876   9.7876  10.0704  10.0704  10.7207  10.7207
    11.7426  11.7426  11.8658  11.8658  12.5552  12.5552  13.5232  13.5232
    13.9192  13.9192  16.1367  16.1367  16.9236  16.9236  17.3012  17.3012
    17.3757  17.3757  18.0845  18.0845  18.4905  18.4905

          k = 0.0000 0.0000 0.0975 ( 11529 PWs)   bands (ev):

  -197.4726-197.4726-197.4079-197.4079-197.4079-197.4079-142.3809-142.3809
  -142.3809-142.3809-140.9329-140.9329-140.8637-140.8637-140.8617-140.8617
  -135.0678-135.0678-135.0456-135.0456-135.0006-135.0006-134.9990-134.9990
  -134.9732-134.9732-134.9712-134.9712 -98.9909 -98.9909 -98.9909 -98.9909
   -74.2626 -74.2626 -74.2626 -74.2626 -74.2586 -74.2586 -74.2586 -74.2586
   -37.7217 -37.7217 -37.6921 -37.6921 -37.6421 -37.6421 -37.6394 -37.6394
   -37.6070 -37.6070 -37.6036 -37.6036 -36.8285 -36.8285 -36.8182 -36.8182
   -36.7906 -36.7906 -36.7493 -36.7493 -36.7466 -36.7466 -36.7363 -36.7363
   -36.7323 -36.7323 -36.7040 -36.7040 -36.7008 -36.7008 -13.9330 -13.9330
   -13.9327 -13.9327 -13.9213 -13.9213 -13.9192 -13.9192 -10.9494 -10.9494
   -10.9470 -10.9470 -10.9299 -10.9299 -10.9286 -10.9286 -10.9264 -10.9264
   -10.9259 -10.9259  -3.7731  -3.7731  -2.9886  -2.9886  -2.1697  -2.1697
     0.5096   0.5096   1.8000   1.8000   7.5351   7.5351   8.2375   8.2375
     8.5653   8.5653   8.8039   8.8039   8.9708   8.9708   9.1658   9.1658
     9.2463   9.2463   9.7784   9.7784  10.0580  10.0580  10.7436  10.7436
    11.7151  11.7151  11.9049  11.9049  12.5794  12.5794  13.4963  13.4963
    13.8891  13.8891  16.1104  16.1104  16.9552  16.9552  17.2733  17.2733
    17.3487  17.3487  18.1665  18.1665  18.5505  18.5505

          k = 0.0000 0.0000 0.1084 ( 11511 PWs)   bands (ev):

  -197.4726-197.4726-197.4079-197.4079-197.4079-197.4079-142.3809-142.3809
  -142.3809-142.3809-140.9321-140.9321-140.8627-140.8627-140.8611-140.8611
  -135.0669-135.0669-135.0450-135.0450-134.9997-134.9997-134.9983-134.9983
  -134.9724-134.9724-134.9708-134.9708 -98.9909 -98.9909 -98.9909 -98.9909
   -74.2626 -74.2626 -74.2626 -74.2626 -74.2586 -74.2586 -74.2586 -74.2586
   -37.7200 -37.7200 -37.6910 -37.6910 -37.6404 -37.6404 -37.6382 -37.6382
   -37.6057 -37.6057 -37.6027 -37.6027 -36.8270 -36.8270 -36.8166 -36.8166
   -36.7898 -36.7898 -36.7476 -36.7476 -36.7456 -36.7456 -36.7342 -36.7342
   -36.7313 -36.7313 -36.7029 -36.7029 -36.6999 -36.6999 -13.9330 -13.9330
   -13.9327 -13.9327 -13.9213 -13.9213 -13.9192 -13.9192 -10.9494 -10.9494
   -10.9470 -10.9470 -10.9299 -10.9299 -10.9286 -10.9286 -10.9264 -10.9264
   -10.9259 -10.9259  -3.7629  -3.7629  -3.0262  -3.0262  -2.1275  -2.1275
     0.4663   0.4663   1.8339   1.8339   7.5050   7.5050   8.2622   8.2622
     8.5661   8.5661   8.8024   8.8024   9.0021   9.0021   9.1739   9.1739
     9.2141   9.2141   9.7688   9.7688  10.0419  10.0419  10.7715  10.7715
    11.6856  11.6856  11.9457  11.9457  12.6052  12.6052  13.4678  13.4678
    13.8575  13.8575  16.0857  16.0857  16.9914  16.9914  17.2468  17.2468
    17.3235  17.3235  18.2354  18.2354  18.5494  18.5494

          k = 0.0000 0.0000 0.1192 ( 11499 PWs)   bands (ev):

  -197.4726-197.4726-197.4079-197.4079-197.4079-197.4079-142.3809-142.3809
  -142.3809-142.3809-140.9316-140.9316-140.8621-140.8621-140.8607-140.8607
  -135.0661-135.0661-135.0449-135.0449-134.9989-134.9989-134.9975-134.9975
  -134.9721-134.9721-134.9708-134.9708 -98.9909 -98.9909 -98.9909 -98.9909
   -74.2626 -74.2626 -74.2626 -74.2626 -74.2586 -74.2586 -74.2586 -74.2586
   -37.7186 -37.7186 -37.6906 -37.6906 -37.6388 -37.6388 -37.6367 -37.6367
   -37.6051 -37.6051 -37.6026 -37.6026 -36.8254 -36.8254 -36.8158 -36.8158
   -36.7896 -36.7896 -36.7459 -36.7459 -36.7438 -36.7438 -36.7329 -36.7329
   -36.7311 -36.7311 -36.7027 -36.7027 -36.6999 -36.6999 -13.9330 -13.9330
   -13.9327 -13.9327 -13.9213 -13.9213 -13.9192 -13.9192 -10.9494 -10.9494
   -10.9470 -10.9470 -10.9299 -10.9299 -10.9286 -10.9286 -10.9264 -10.9264
   -10.9259 -10.9259  -3.7522  -3.7522  -3.0619  -3.0619  -2.0875  -2.0875
     0.4242   0.4242   1.8661   1.8661   7.4767   7.4767   8.2836   8.2836
     8.5703   8.5703   8.8006   8.8006   9.0316   9.0316   9.1819   9.1819
     9.1832   9.1832   9.7588   9.7588  10.0231  10.0231  10.8035  10.8035
    11.6536  11.6536  11.9872  11.9872  12.6321  12.6321  13.4377  13.4377
    13.8247  13.8247  16.0624  16.0624  17.0320  17.0320  17.2221  17.2221
    17.3003  17.3003  18.2628  18.2628  18.5464  18.5464

          k = 0.0000 0.0000 0.1300 ( 11484 PWs)   bands (ev):

  -197.4726-197.4726-197.4079-197.4079-197.4079-197.4079-142.3809-142.3809
  -142.3809-142.3809-140.9309-140.9309-140.8616-140.8616-140.8599-140.8599
  -135.0656-135.0656-135.0442-135.0442-134.9985-134.9985-134.9968-134.9968
  -134.9716-134.9716-134.9702-134.9702 -98.9909 -98.9909 -98.9909 -98.9909
   -74.2626 -74.2626 -74.2626 -74.2626 -74.2586 -74.2586 -74.2586 -74.2586
   -37.7175 -37.7175 -37.6894 -37.6894 -37.6380 -37.6380 -37.6354 -37.6354
   -37.6041 -37.6041 -37.6015 -37.6015 -36.8242 -36.8242 -36.8147 -36.8147
   -36.7884 -36.7884 -36.7451 -36.7451 -36.7423 -36.7423 -36.7321 -36.7321
   -36.7299 -36.7299 -36.7015 -36.7015 -36.6989 -36.6989 -13.9330 -13.9330
   -13.9327 -13.9327 -13.9213 -13.9213 -13.9192 -13.9192 -10.9494 -10.9494
   -10.9470 -10.9470 -10.9299 -10.9299 -10.9286 -10.9286 -10.9264 -10.9264
   -10.9259 -10.9259  -3.7410  -3.7410  -3.0956  -3.0956  -2.0500  -2.0500
     0.3844   0.3844   1.8962   1.8962   7.4501   7.4501   8.3016   8.3016
     8.5785   8.5785   8.7989   8.7989   9.0569   9.0569   9.1567   9.1567
     9.1905   9.1905   9.7492   9.7492  10.0020  10.0020  10.8379  10.8379
    11.6198  11.6198  12.0284  12.0284  12.6597  12.6597  13.4069  13.4069
    13.7915  13.7915  16.0411  16.0411  17.0770  17.0770  17.1991  17.1991
    17.2792  17.2792  18.2292  18.2292  18.5961  18.5961

          k = 0.0000 0.0000 0.1409 ( 11479 PWs)   bands (ev):

  -197.4726-197.4726-197.4079-197.4079-197.4079-197.4079-142.3809-142.3809
  -142.3809-142.3809-140.9307-140.9307-140.8611-140.8611-140.8599-140.8599
  -135.0654-135.0654-135.0440-135.0440-134.9979-134.9979-134.9970-134.9970
  -134.9713-134.9713-134.9699-134.9699 -98.9909 -98.9909 -98.9909 -98.9909
   -74.2626 -74.2626 -74.2626 -74.2626 -74.2586 -74.2586 -74.2586 -74.2586
   -37.7173 -37.7173 -37.6890 -37.6890 -37.6374 -37.6374 -37.6353 -37.6353
   -37.6036 -37.6036 -37.6010 -37.6010 -36.8243 -36.8243 -36.8140 -36.8140
   -36.7881 -36.7881 -36.7446 -36.7446 -36.7428 -36.7428 -36.7315 -36.7315
   -36.7287 -36.7287 -36.7012 -36.7012 -36.6985 -36.6985 -13.9330 -13.9330
   -13.9327 -13.9327 -13.9213 -13.9213 -13.9192 -13.9192 -10.9494 -10.9494
   -10.9470 -10.9470 -10.9299 -10.9299 -10.9286 -10.9286 -10.9264 -10.9264
   -10.9259 -10.9259  -3.7296  -3.7296  -3.1269  -3.1269  -2.0155  -2.0155
     0.3472   0.3472   1.9236   1.9236   7.4259   7.4259   8.3155   8.3155
     8.5907   8.5907   8.7972   8.7972   9.0671   9.0671   9.1442   9.1442
     9.1986   9.1986   9.7396   9.7396   9.9795   9.9795  10.8745  10.8745
    11.5844  11.5844  12.0685  12.0685  12.6872  12.6872  13.3759  13.3759
    13.7586  13.7586  16.0219  16.0219  17.1251  17.1251  17.1785  17.1785
    17.2616  17.2616  18.1609  18.1609  18.6800  18.6800

          k = 0.0000 0.0000 0.1517 ( 11482 PWs)   bands (ev):

  -197.4726-197.4726-197.4079-197.4079-197.4079-197.4079-142.3809-142.3809
  -142.3809-142.3809-140.9308-140.9308-140.8612-140.8612-140.8600-140.8600
  -135.0655-135.0655-135.0441-135.0441-134.9980-134.9980-134.9971-134.9971
  -134.9714-134.9714-134.9701-134.9701 -98.9909 -98.9909 -98.9909 -98.9909
   -74.2626 -74.2626 -74.2626 -74.2626 -74.2586 -74.2586 -74.2586 -74.2586
   -37.7174 -37.7174 -37.6892 -37.6892 -37.6376 -37.6376 -37.6354 -37.6354
   -37.6038 -37.6038 -37.6012 -37.6012 -36.8244 -36.8244 -36.8142 -36.8142
   -36.7883 -36.7883 -36.7447 -36.7447 -36.7429 -36.7429 -36.7318 -36.7318
   -36.7288 -36.7288 -36.7013 -36.7013 -36.6987 -36.6987 -13.9330 -13.9330
   -13.9327 -13.9327 -13.9213 -13.9213 -13.9192 -13.9192 -10.9494 -10.9494
   -10.9470 -10.9470 -10.9299 -10.9299 -10.9286 -10.9286 -10.9264 -10.9264
   -10.9259 -10.9259  -3.7184  -3.7184  -3.1555  -3.1555  -1.9843  -1.9843
     0.3134   0.3134   1.9481   1.9481   7.4045   7.4045   8.3257   8.3257
     8.6063   8.6063   8.7957   8.7957   9.0533   9.0533   9.1542   9.1542
     9.2058   9.2058   9.7305   9.7305   9.9566   9.9566  10.9126  10.9126
    11.5480  11.5480  12.1067  12.1067  12.7139  12.7139  13.3456  13.3456
    13.7269  13.7269  16.0053  16.0053  17.1604  17.1604  17.1735  17.1735
    17.2500  17.2500  18.0804  18.0804  18.7766  18.7766

          k = 0.0000 0.0000 0.1625 ( 11482 PWs)   bands (ev):

  -197.4726-197.4726-197.4079-197.4079-197.4079-197.4079-142.3809-142.3809
  -142.3809-142.3809-140.9307-140.9307-140.8611-140.8611-140.8601-140.8601
  -135.0656-135.0656-135.0439-135.0439-134.9984-134.9984-134.9970-134.9970
  -134.9708-134.9708-134.9702-134.9702 -98.9909 -98.9909 -98.9909 -98.9909
   -74.2626 -74.2626 -74.2626 -74.2626 -74.2586 -74.2586 -74.2586 -74.2586
   -37.7176 -37.7176 -37.6888 -37.6888 -37.6384 -37.6384 -37.6353 -37.6353
   -37.6031 -37.6031 -37.6012 -37.6012 -36.8240 -36.8240 -36.8151 -36.8151
   -36.7874 -36.7874 -36.7452 -36.7452 -36.7420 -36.7420 -36.7332 -36.7332
   -36.7294 -36.7294 -36.6998 -36.6998 -36.6985 -36.6985 -13.9330 -13.9330
   -13.9327 -13.9327 -13.9213 -13.9213 -13.9192 -13.9192 -10.9494 -10.9494
   -10.9470 -10.9470 -10.9299 -10.9299 -10.9286 -10.9286 -10.9264 -10.9264
   -10.9259 -10.9259  -3.7076  -3.7076  -3.1810  -3.1810  -1.9569  -1.9569
     0.2835   0.2835   1.9693   1.9693   7.3864   7.3864   8.3333   8.3333
     8.6242   8.6242   8.7947   8.7947   9.0282   9.0282   9.1742   9.1742
     9.2123   9.2123   9.7224   9.7224   9.9345   9.9345  10.9506  10.9506
    11.5117  11.5117  12.1418  12.1418  12.7391  12.7391  13.3173  13.3173
    13.6972  13.6972  15.9918  15.9918  17.1451  17.1451  17.2049  17.2049
    17.2621  17.2621  17.9960  17.9960  18.8755  18.8755

          k = 0.0000 0.0000 0.1734 ( 11479 PWs)   bands (ev):

  -197.4726-197.4726-197.4079-197.4079-197.4079-197.4079-142.3809-142.3809
  -142.3809-142.3809-140.9306-140.9306-140.8607-140.8607-140.8602-140.8602
  -135.0654-135.0654-135.0438-135.0438-134.9980-134.9980-134.9971-134.9971
  -134.9707-134.9707-134.9702-134.9702 -98.9909 -98.9909 -98.9909 -98.9909
   -74.2626 -74.2626 -74.2626 -74.2626 -74.2586 -74.2586 -74.2586 -74.2586
   -37.7172 -37.7172 -37.6886 -37.6886 -37.6377 -37.6377 -37.6355 -37.6355
   -37.6027 -37.6027 -37.6013 -37.6013 -36.8239 -36.8239 -36.8144 -36.8144
   -36.7875 -36.7875 -36.7448 -36.7448 -36.7424 -36.7424 -36.7322 -36.7322
   -36.7291 -36.7291 -36.6997 -36.6997 -36.6986 -36.6986 -13.9330 -13.9330
   -13.9327 -13.9327 -13.9213 -13.9213 -13.9192 -13.9192 -10.9494 -10.9494
   -10.9470 -10.9470 -10.9299 -10.9299 -10.9286 -10.9286 -10.9264 -10.9264
   -10.9260 -10.9260  -3.6977  -3.6977  -3.2029  -3.2029  -1.9339  -1.9339
     0.2582   0.2582   1.9870   1.9870   7.3712   7.3712   8.3386   8.3386
     8.6436   8.6436   8.7938   8.7938   9.0009   9.0009   9.1953   9.1953
     9.2178   9.2178   9.7153   9.7153   9.9144   9.9144  10.9884  10.9884
    11.4763  11.4763  12.1730  12.1730  12.7618  12.7618  13.2917  13.2917
    13.6709  13.6709  15.9802  15.9802  17.1324  17.1324  17.2049  17.2049
    17.3117  17.3117  17.9114  17.9114  18.9618  18.9618

          k = 0.0000 0.0000 0.1842 ( 11491 PWs)   bands (ev):

  -197.4726-197.4726-197.4079-197.4079-197.4079-197.4079-142.3809-142.3809
  -142.3809-142.3809-140.9311-140.9311-140.8615-140.8615-140.8605-140.8605
  -135.0661-135.0661-135.0441-135.0441-134.9990-134.9990-134.9974-134.9974
  -134.9709-134.9709-134.9704-134.9704 -98.9909 -98.9909 -98.9909 -98.9909
   -74.2626 -74.2626 -74.2626 -74.2626 -74.2586 -74.2586 -74.2586 -74.2586
   -37.7184 -37.7184 -37.6891 -37.6891 -37.6394 -37.6394 -37.6362 -37.6362
   -37.6033 -37.6033 -37.6017 -37.6017 -36.8249 -36.8249 -36.8157 -36.8157
   -36.7877 -36.7877 -36.7464 -36.7464 -36.7429 -36.7429 -36.7339 -36.7339
   -36.7300 -36.7300 -36.7000 -36.7000 -36.6988 -36.6988 -13.9330 -13.9330
   -13.9327 -13.9327 -13.9213 -13.9213 -13.9192 -13.9192 -10.9494 -10.9494
   -10.9470 -10.9470 -10.9299 -10.9299 -10.9286 -10.9286 -10.9264 -10.9264
   -10.9260 -10.9260  -3.6893  -3.6893  -3.2208  -3.2208  -1.9155  -1.9155
     0.2380   0.2380   2.0009   2.0009   7.3590   7.3590   8.3417   8.3417
     8.6622   8.6622   8.7929   8.7929   8.9756   8.9756   9.2131   9.2131
     9.2223   9.2223   9.7094   9.7094   9.8969   9.8969  11.0229  11.0229
    11.4431  11.4431  12.1988  12.1988  12.7809  12.7809  13.2703  13.2703
    13.6488  13.6488  15.9712  15.9712  17.1223  17.1223  17.1983  17.1983
    17.3744  17.3744  17.8272  17.8272  18.9898  18.9898

          k = 0.0000 0.0000 0.1951 ( 11527 PWs)   bands (ev):

  -197.4726-197.4726-197.4079-197.4079-197.4079-197.4079-142.3809-142.3809
  -142.3809-142.3809-140.9326-140.9326-140.8631-140.8631-140.8618-140.8618
  -135.0678-135.0678-135.0452-135.0452-135.0007-135.0007-134.9990-134.9990
  -134.9720-134.9720-134.9715-134.9715 -98.9909 -98.9909 -98.9909 -98.9909
   -74.2626 -74.2626 -74.2626 -74.2626 -74.2586 -74.2586 -74.2586 -74.2586
   -37.7216 -37.7216 -37.6913 -37.6913 -37.6420 -37.6420 -37.6396 -37.6396
   -37.6048 -37.6048 -37.6042 -37.6042 -36.8276 -36.8276 -36.8192 -36.8192
   -36.7893 -36.7893 -36.7487 -36.7487 -36.7457 -36.7457 -36.7359 -36.7359
   -36.7348 -36.7348 -36.7010 -36.7010 -36.7007 -36.7007 -13.9330 -13.9330
   -13.9327 -13.9327 -13.9213 -13.9213 -13.9192 -13.9192 -10.9494 -10.9494
   -10.9470 -10.9470 -10.9299 -10.9299 -10.9286 -10.9286 -10.9264 -10.9264
   -10.9260 -10.9260  -3.6828  -3.6828  -3.2340  -3.2340  -1.9021  -1.9021
     0.2229   0.2229   2.0110   2.0110   7.3501   7.3501   8.3435   8.3435
     8.6785   8.6785   8.7920   8.7920   8.9532   8.9532   9.2247   9.2247
     9.2263   9.2263   9.7047   9.7047   9.8833   9.8833  11.0519  11.0519
    11.4148  11.4148  12.2178  12.2178  12.7953  12.7953  13.2537  13.2537
    13.6319  13.6319  15.9648  15.9648  17.1149  17.1149  17.1925  17.1925
    17.4416  17.4416  17.7441  17.7441  18.9829  18.9829

          k = 0.0000 0.0000 0.2059 ( 11524 PWs)   bands (ev):

  -197.4726-197.4726-197.4079-197.4079-197.4079-197.4079-142.3809-142.3809
  -142.3809-142.3809-140.9325-140.9325-140.8628-140.8628-140.8618-140.8618
  -135.0676-135.0676-135.0452-135.0452-135.0003-135.0003-134.9990-134.9990
  -134.9720-134.9720-134.9715-134.9715 -98.9909 -98.9909 -98.9909 -98.9909
   -74.2626 -74.2626 -74.2626 -74.2626 -74.2586 -74.2586 -74.2586 -74.2586
   -37.7213 -37.7213 -37.6913 -37.6913 -37.6413 -37.6413 -37.6396 -37.6396
   -37.6048 -37.6048 -37.6042 -37.6042 -36.8271 -36.8271 -36.8192 -36.8192
   -36.7893 -36.7893 -36.7476 -36.7476 -36.7456 -36.7456 -36.7359 -36.7359
   -36.7347 -36.7347 -36.7010 -36.7010 -36.7007 -36.7007 -13.9330 -13.9330
   -13.9327 -13.9327 -13.9213 -13.9213 -13.9192 -13.9192 -10.9494 -10.9494
   -10.9470 -10.9470 -10.9299 -10.9299 -10.9286 -10.9286 -10.9264 -10.9264
   -10.9260 -10.9260  -3.6786  -3.6786  -3.2422  -3.2422  -1.8940  -1.8940
     0.2139   0.2139   2.0171   2.0171   7.3451   7.3451   8.3447   8.3447
     8.6902   8.6902   8.7916   8.7916   8.9389   8.9389   9.2268   9.2268
     9.2354   9.2354   9.7020   9.7020   9.8750   9.8750  11.0725  11.0725
    11.3950  11.3950  12.2300  12.2300  12.8045  12.8045  13.2434  13.2434
    13.6214  13.6214  15.9614  15.9614  17.1105  17.1105  17.1889  17.1889
    17.5126  17.5126  17.6644  17.6644  18.9754  18.9754

          k = 0.0000 0.0000 0.2167 ( 11512 PWs)   bands (ev):

  -197.4726-197.4726-197.4079-197.4079-197.4079-197.4079-142.3809-142.3809
  -142.3809-142.3809-140.9320-140.9320-140.8625-140.8625-140.8612-140.8612
  -135.0669-135.0669-135.0450-135.0450-134.9999-134.9999-134.9979-134.9979
  -134.9718-134.9718-134.9713-134.9713 -98.9909 -98.9909 -98.9909 -98.9909
   -74.2626 -74.2626 -74.2626 -74.2626 -74.2586 -74.2586 -74.2586 -74.2586
   -37.7200 -37.7200 -37.6909 -37.6909 -37.6404 -37.6404 -37.6378 -37.6378
   -37.6043 -37.6043 -37.6040 -37.6040 -36.8258 -36.8258 -36.8183 -36.8183
   -36.7891 -36.7891 -36.7469 -36.7469 -36.7436 -36.7436 -36.7346 -36.7346
   -36.7340 -36.7340 -36.7007 -36.7007 -36.7007 -36.7007 -13.9330 -13.9330
   -13.9327 -13.9327 -13.9213 -13.9213 -13.9192 -13.9192 -10.9494 -10.9494
   -10.9470 -10.9470 -10.9299 -10.9299 -10.9286 -10.9286 -10.9264 -10.9264
   -10.9260 -10.9260  -3.6772  -3.6772  -3.2449  -3.2449  -1.8912  -1.8912
     0.2109   0.2109   2.0192   2.0192   7.3437   7.3437   8.3451   8.3451
     8.6946   8.6946   8.7916   8.7916   8.9339   8.9339   9.2276   9.2276
     9.2386   9.2386   9.7013   9.7013   9.8725   9.8725  11.0806  11.0806
    11.3879  11.3879  12.2343  12.2343  12.8077  12.8077  13.2399  13.2399
    13.6180  13.6180  15.9602  15.9602  17.1091  17.1091  17.1877  17.1877
    17.5829  17.5829  17.5913  17.5913  18.9726  18.9726

          k = 0.0000-0.0289 0.2131 ( 11532 PWs)   bands (ev):

  -197.4726-197.4726-197.4079-197.4079-197.4079-197.4079-142.3809-142.3809
  -142.3809-142.3809-140.9328-140.9328-140.8628-140.8628-140.8625-140.8625
  -135.0674-135.0674-135.0459-135.0459-135.0000-135.0000-134.9991-134.9991
  -134.9727-134.9727-134.9723-134.9723 -98.9909 -98.9909 -98.9909 -98.9909
   -74.2626 -74.2626 -74.2626 -74.2626 -74.2586 -74.2586 -74.2586 -74.2586
   -37.7210 -37.7210 -37.6925 -37.6925 -37.6406 -37.6406 -37.6399 -37.6399
   -37.6065 -37.6065 -37.6052 -37.6052 -36.8273 -36.8273 -36.8186 -36.8186
   -36.7911 -36.7911 -36.7476 -36.7476 -36.7463 -36.7463 -36.7353 -36.7353
   -36.7343 -36.7343 -36.7036 -36.7036 -36.7021 -36.7021 -13.9330 -13.9330
   -13.9327 -13.9327 -13.9213 -13.9213 -13.9193 -13.9193 -10.9493 -10.9493
   -10.9469 -10.9469 -10.9298 -10.9298 -10.9286 -10.9286 -10.9264 -10.9264
   -10.9259 -10.9259  -3.6721  -3.6721  -3.2398  -3.2398  -1.8892  -1.8892
     0.2130   0.2130   2.0096   2.0096   7.3462   7.3462   8.3323   8.3323
     8.5626   8.5626   8.8098   8.8098   8.8901   8.8901   9.1841   9.1841
     9.2916   9.2916   9.7647   9.7647   9.9241   9.9241  11.0571  11.0571
    11.3511  11.3511  12.2539  12.2539  12.7755  12.7755  13.3119  13.3119
    13.6355  13.6355  15.9733  15.9733  17.0554  17.0554  17.1759  17.1759
    17.5708  17.5708  17.6456  17.6456  18.9921  18.9921

          k = 0.0000-0.0577 0.2095 ( 11534 PWs)   bands (ev):

  -197.4726-197.4726-197.4079-197.4079-197.4079-197.4079-142.3809-142.3809
  -142.3809-142.3809-140.9329-140.9329-140.8630-140.8630-140.8626-140.8626
  -135.0673-135.0673-135.0462-135.0462-134.9998-134.9998-134.9991-134.9991
  -134.9730-134.9730-134.9726-134.9726 -98.9909 -98.9909 -98.9909 -98.9909
   -74.2626 -74.2626 -74.2626 -74.2626 -74.2586 -74.2586 -74.2586 -74.2586
   -37.7208 -37.7208 -37.6931 -37.6931 -37.6406 -37.6406 -37.6397 -37.6397
   -37.6071 -37.6071 -37.6058 -37.6058 -36.8273 -36.8273 -36.8183 -36.8183
   -36.7920 -36.7920 -36.7475 -36.7475 -36.7465 -36.7465 -36.7354 -36.7354
   -36.7337 -36.7337 -36.7044 -36.7044 -36.7031 -36.7031 -13.9329 -13.9329
   -13.9326 -13.9326 -13.9213 -13.9213 -13.9193 -13.9193 -10.9491 -10.9491
   -10.9467 -10.9467 -10.9298 -10.9298 -10.9288 -10.9288 -10.9266 -10.9266
   -10.9258 -10.9258  -3.6569  -3.6569  -3.2243  -3.2243  -1.8832  -1.8832
     0.2192   0.2192   1.9810   1.9810   7.3543   7.3543   8.2763   8.2763
     8.3346   8.3346   8.7637   8.7637   8.8126   8.8126   9.0859   9.0859
     9.4120   9.4120   9.8909   9.8909  10.0334  10.0334  10.9973  10.9973
    11.2780  11.2780  12.2880  12.2880  12.7418  12.7418  13.4690  13.4690
    13.6837  13.6837  16.0128  16.0128  16.8963  16.8963  17.2103  17.2103
    17.5447  17.5447  17.7216  17.7216  19.0175  19.0175

          k = 0.0000-0.0866 0.2059 ( 11531 PWs)   bands (ev):

  -197.4726-197.4726-197.4079-197.4079-197.4079-197.4079-142.3809-142.3809
  -142.3809-142.3809-140.9329-140.9329-140.8635-140.8635-140.8620-140.8620
  -135.0670-135.0670-135.0465-135.0465-134.9998-134.9998-134.9984-134.9984
  -134.9737-134.9737-134.9724-134.9724 -98.9909 -98.9909 -98.9909 -98.9909
   -74.2626 -74.2626 -74.2626 -74.2626 -74.2586 -74.2586 -74.2586 -74.2586
   -37.7201 -37.7201 -37.6936 -37.6936 -37.6404 -37.6404 -37.6386 -37.6386
   -37.6078 -37.6078 -37.6059 -37.6059 -36.8267 -36.8267 -36.8179 -36.8179
   -36.7928 -36.7928 -36.7476 -36.7476 -36.7452 -36.7452 -36.7345 -36.7345
   -36.7338 -36.7338 -36.7056 -36.7056 -36.7033 -36.7033 -13.9327 -13.9327
   -13.9324 -13.9324 -13.9213 -13.9213 -13.9193 -13.9193 -10.9488 -10.9488
   -10.9463 -10.9463 -10.9297 -10.9297 -10.9291 -10.9291 -10.9268 -10.9268
   -10.9256 -10.9256  -3.6316  -3.6316  -3.1986  -3.1986  -1.8735  -1.8735
     0.2292   0.2292   1.9339   1.9339   7.3670   7.3670   8.0247   8.0247
     8.2261   8.2261   8.6529   8.6529   8.7567   8.7567   8.9946   8.9946
     9.5264   9.5264  10.0013  10.0013  10.1094  10.1094  10.9201  10.9201
    11.2570  11.2570  12.2966  12.2966  12.7722  12.7722  13.6415  13.6415
    13.7526  13.7526  16.0769  16.0769  16.7116  16.7116  17.2789  17.2789
    17.4698  17.4698  17.7857  17.7857  18.8994  18.8994

          k = 0.0000-0.1155 0.2023 ( 11518 PWs)   bands (ev):

  -197.4726-197.4726-197.4079-197.4079-197.4079-197.4079-142.3809-142.3809
  -142.3809-142.3809-140.9324-140.9324-140.8635-140.8635-140.8611-140.8611
  -135.0666-135.0666-135.0460-135.0460-134.9997-134.9997-134.9978-134.9978
  -134.9738-134.9738-134.9714-134.9714 -98.9909 -98.9909 -98.9909 -98.9909
   -74.2626 -74.2626 -74.2626 -74.2626 -74.2586 -74.2586 -74.2586 -74.2586
   -37.7195 -37.7195 -37.6927 -37.6927 -37.6402 -37.6402 -37.6375 -37.6375
   -37.6080 -37.6080 -37.6040 -37.6040 -36.8259 -36.8259 -36.8175 -36.8175
   -36.7917 -36.7917 -36.7472 -36.7472 -36.7441 -36.7441 -36.7349 -36.7349
   -36.7326 -36.7326 -36.7057 -36.7057 -36.7013 -36.7013 -13.9325 -13.9325
   -13.9322 -13.9322 -13.9213 -13.9213 -13.9194 -13.9194 -10.9484 -10.9484
   -10.9459 -10.9459 -10.9297 -10.9297 -10.9294 -10.9294 -10.9270 -10.9270
   -10.9253 -10.9253  -3.5963  -3.5963  -3.1628  -3.1628  -1.8605  -1.8605
     0.2426   0.2426   1.8689   1.8689   7.3808   7.3808   7.7314   7.7314
     8.1058   8.1058   8.5581   8.5581   8.6704   8.6704   8.9382   8.9382
     9.6060   9.6060   9.9448   9.9448  10.2109  10.2109  10.8336  10.8336
    11.3633  11.3633  12.2838  12.2838  12.8650  12.8650  13.7683  13.7683
    13.8548  13.8548  16.1542  16.1542  16.5408  16.5408  17.3076  17.3076
    17.4013  17.4013  17.8491  17.8491  18.7394  18.7394

          k = 0.0000-0.1443 0.1987 ( 11516 PWs)   bands (ev):

  -197.4726-197.4726-197.4079-197.4079-197.4079-197.4079-142.3809-142.3809
  -142.3809-142.3809-140.9325-140.9325-140.8634-140.8634-140.8613-140.8613
  -135.0667-135.0667-135.0460-135.0460-134.9996-134.9996-134.9979-134.9979
  -134.9737-134.9737-134.9717-134.9717 -98.9909 -98.9909 -98.9909 -98.9909
   -74.2626 -74.2626 -74.2626 -74.2626 -74.2586 -74.2586 -74.2586 -74.2586
   -37.7195 -37.7195 -37.6928 -37.6928 -37.6400 -37.6400 -37.6377 -37.6377
   -37.6078 -37.6078 -37.6046 -37.6046 -36.8257 -36.8257 -36.8179 -36.8179
   -36.7918 -36.7918 -36.7466 -36.7466 -36.7442 -36.7442 -36.7352 -36.7352
   -36.7330 -36.7330 -36.7053 -36.7053 -36.7019 -36.7019 -13.9322 -13.9322
   -13.9319 -13.9319 -13.9213 -13.9213 -13.9194 -13.9194 -10.9479 -10.9479
   -10.9454 -10.9454 -10.9300 -10.9300 -10.9296 -10.9296 -10.9272 -10.9272
   -10.9249 -10.9249  -3.5514  -3.5514  -3.1172  -3.1172  -1.8447  -1.8447
     0.2589   0.2589   1.7870   1.7870   7.3561   7.3561   7.4751   7.4751
     7.9572   7.9572   8.4591   8.4591   8.5885   8.5885   8.9088   8.9088
     9.6367   9.6367   9.7476   9.7476  10.3191  10.3191  10.7628  10.7628
    11.5680  11.5680  12.2776  12.2776  12.9912  12.9912  13.8227  13.8227
    13.9856  13.9856  16.1760  16.1760  16.4595  16.4595  17.1365  17.1365
    17.5213  17.5213  17.9046  17.9046  18.6255  18.6255

          k = 0.0000-0.1732 0.1951 ( 11510 PWs)   bands (ev):

  -197.4726-197.4726-197.4079-197.4079-197.4079-197.4079-142.3809-142.3809
  -142.3809-142.3809-140.9323-140.9323-140.8632-140.8632-140.8612-140.8612
  -135.0666-135.0666-135.0458-135.0458-134.9996-134.9996-134.9979-134.9979
  -134.9735-134.9735-134.9713-134.9713 -98.9909 -98.9909 -98.9909 -98.9909
   -74.2626 -74.2626 -74.2626 -74.2626 -74.2586 -74.2586 -74.2586 -74.2586
   -37.7195 -37.7195 -37.6923 -37.6923 -37.6400 -37.6400 -37.6377 -37.6377
   -37.6075 -37.6075 -37.6040 -37.6040 -36.8260 -36.8260 -36.8172 -36.8172
   -36.7914 -36.7914 -36.7469 -36.7469 -36.7444 -36.7444 -36.7345 -36.7345
   -36.7325 -36.7325 -36.7051 -36.7051 -36.7012 -36.7012 -13.9319 -13.9319
   -13.9315 -13.9315 -13.9213 -13.9213 -13.9195 -13.9195 -10.9475 -10.9475
   -10.9449 -10.9449 -10.9305 -10.9305 -10.9298 -10.9298 -10.9271 -10.9271
   -10.9244 -10.9244  -3.4970  -3.4970  -3.0621  -3.0621  -1.8267  -1.8267
     0.2773   0.2773   1.6894   1.6894   7.1143   7.1143   7.4387   7.4387
     7.8007   7.8007   8.3345   8.3345   8.5380   8.5380   8.8919   8.8919
     9.4746   9.4746   9.6421   9.6421  10.3503  10.3503  10.7682  10.7682
    11.8077  11.8077  12.2939  12.2939  13.1336  13.1336  13.8374  13.8374
    14.0955  14.0955  16.0560  16.0560  16.5502  16.5502  16.9507  16.9507
    17.6786  17.6786  17.9313  17.9313  18.5815  18.5815

          k = 0.0000-0.2021 0.1914 ( 11499 PWs)   bands (ev):

  -197.4726-197.4726-197.4079-197.4079-197.4079-197.4079-142.3809-142.3809
  -142.3809-142.3809-140.9319-140.9319-140.8628-140.8628-140.8609-140.8609
  -135.0664-135.0664-135.0453-135.0453-134.9995-134.9995-134.9977-134.9977
  -134.9728-134.9728-134.9711-134.9711 -98.9909 -98.9909 -98.9909 -98.9909
   -74.2626 -74.2626 -74.2626 -74.2626 -74.2586 -74.2586 -74.2586 -74.2586
   -37.7191 -37.7191 -37.6915 -37.6915 -37.6399 -37.6399 -37.6371 -37.6371
   -37.6062 -37.6062 -37.6034 -37.6034 -36.8258 -36.8258 -36.8166 -36.8166
   -36.7904 -36.7904 -36.7469 -36.7469 -36.7441 -36.7441 -36.7341 -36.7341
   -36.7317 -36.7317 -36.7036 -36.7036 -36.7008 -36.7008 -13.9315 -13.9315
   -13.9312 -13.9312 -13.9212 -13.9212 -13.9196 -13.9196 -10.9470 -10.9470
   -10.9444 -10.9444 -10.9310 -10.9310 -10.9300 -10.9300 -10.9268 -10.9268
   -10.9238 -10.9238  -3.4337  -3.4337  -2.9979  -2.9979  -1.8075  -1.8075
     0.2970   0.2970   1.5776   1.5776   6.8374   6.8374   7.4264   7.4264
     7.6635   7.6635   8.2009   8.2009   8.5015   8.5015   8.8791   8.8791
     9.2036   9.2036   9.5948   9.5948  10.2852  10.2852  10.8642  10.8642
    12.0402  12.0402  12.3361  12.3361  13.2861  13.2861  13.8193  13.8193
    14.1753  14.1753  15.8851  15.8851  16.6778  16.6778  16.8239  16.8239
    17.8633  17.8633  17.9342  17.9342  18.6035  18.6035

          k = 0.0000-0.2309 0.1878 ( 11510 PWs)   bands (ev):

  -197.4726-197.4726-197.4079-197.4079-197.4079-197.4079-142.3809-142.3809
  -142.3809-142.3809-140.9325-140.9325-140.8628-140.8628-140.8619-140.8619
  -135.0669-135.0669-135.0458-135.0458-134.9995-134.9995-134.9986-134.9986
  -134.9728-134.9728-134.9720-134.9720 -98.9909 -98.9909 -98.9909 -98.9909
   -74.2626 -74.2626 -74.2626 -74.2626 -74.2586 -74.2586 -74.2586 -74.2586
   -37.7200 -37.7200 -37.6924 -37.6924 -37.6400 -37.6400 -37.6389 -37.6389
   -37.6063 -37.6063 -37.6052 -37.6052 -36.8268 -36.8268 -36.8173 -36.8173
   -36.7915 -36.7915 -36.7469 -36.7469 -36.7461 -36.7461 -36.7343 -36.7343
   -36.7329 -36.7329 -36.7038 -36.7038 -36.7027 -36.7027 -13.9311 -13.9311
   -13.9308 -13.9308 -13.9212 -13.9212 -13.9196 -13.9196 -10.9467 -10.9467
   -10.9441 -10.9441 -10.9315 -10.9315 -10.9303 -10.9303 -10.9264 -10.9264
   -10.9231 -10.9231  -3.3618  -3.3618  -2.9251  -2.9251  -1.7879  -1.7879
     0.3168   0.3168   1.4535   1.4535   6.5727   6.5727   7.3497   7.3497
     7.5912   7.5912   8.0705   8.0705   8.4567   8.4567   8.8420   8.8420
     8.9748   8.9748   9.5216   9.5216  10.1770  10.1770  10.9942  10.9942
    12.2342  12.2342  12.4041  12.4041  13.4370  13.4370  13.7835  13.7835
    14.2264  14.2264  15.7003  15.7003  16.5998  16.5998  16.9715  16.9715
    17.9367  17.9367  18.0771  18.0771  18.6744  18.6744

          k = 0.0000-0.2598 0.1842 ( 11515 PWs)   bands (ev):

  -197.4726-197.4726-197.4079-197.4079-197.4079-197.4079-142.3809-142.3809
  -142.3809-142.3809-140.9328-140.9328-140.8628-140.8628-140.8625-140.8625
  -135.0671-135.0671-135.0462-135.0462-134.9994-134.9994-134.9990-134.9990
  -134.9728-134.9728-134.9728-134.9728 -98.9909 -98.9909 -98.9909 -98.9909
   -74.2626 -74.2626 -74.2626 -74.2626 -74.2586 -74.2586 -74.2586 -74.2586
   -37.7203 -37.7203 -37.6931 -37.6931 -37.6398 -37.6398 -37.6396 -37.6396
   -37.6066 -37.6066 -37.6062 -37.6062 -36.8270 -36.8270 -36.8177 -36.8177
   -36.7922 -36.7922 -36.7470 -36.7470 -36.7466 -36.7466 -36.7344 -36.7344
   -36.7335 -36.7335 -36.7041 -36.7041 -36.7038 -36.7038 -13.9307 -13.9307
   -13.9304 -13.9304 -13.9212 -13.9212 -13.9197 -13.9197 -10.9465 -10.9465
   -10.9439 -10.9439 -10.9320 -10.9320 -10.9304 -10.9304 -10.9258 -10.9258
   -10.9223 -10.9223  -3.2821  -3.2821  -2.8443  -2.8443  -1.7691  -1.7691
     0.3355   0.3355   1.3194   1.3194   6.3270   6.3270   7.2153   7.2153
     7.5693   7.5693   7.9522   7.9522   8.3649   8.3649   8.7000   8.7000
     8.9194   8.9194   9.4322   9.4322  10.0553  10.0553  11.1272  11.1272
    12.3624  12.3624  12.5023  12.5023  13.5253  13.5253  13.8007  13.8007
    14.2553  14.2553  15.5098  15.5098  16.4993  16.4993  17.2082  17.2082
    17.9686  17.9686  18.3127  18.3127  18.7837  18.7837

          k = 0.0000-0.2887 0.1806 ( 11524 PWs)   bands (ev):

  -197.4726-197.4726-197.4079-197.4079-197.4079-197.4079-142.3809-142.3809
  -142.3809-142.3809-140.9332-140.9332-140.8633-140.8633-140.8628-140.8628
  -135.0674-135.0674-135.0466-135.0466-134.9997-134.9997-134.9994-134.9994
  -134.9737-134.9737-134.9727-134.9727 -98.9909 -98.9909 -98.9909 -98.9909
   -74.2626 -74.2626 -74.2626 -74.2626 -74.2586 -74.2586 -74.2586 -74.2586
   -37.7210 -37.7210 -37.6938 -37.6938 -37.6406 -37.6406 -37.6401 -37.6401
   -37.6083 -37.6083 -37.6061 -37.6061 -36.8278 -36.8278 -36.8184 -36.8184
   -36.7929 -36.7929 -36.7477 -36.7477 -36.7471 -36.7471 -36.7354 -36.7354
   -36.7341 -36.7341 -36.7060 -36.7060 -36.7035 -36.7035 -13.9303 -13.9303
   -13.9300 -13.9300 -13.9211 -13.9211 -13.9198 -13.9198 -10.9465 -10.9465
   -10.9439 -10.9439 -10.9324 -10.9324 -10.9305 -10.9305 -10.9251 -10.9251
   -10.9214 -10.9214  -3.1953  -3.1953  -2.7563  -2.7563  -1.7523  -1.7523
     0.3514   0.3514   1.1779   1.1779   6.1037   6.1037   7.0675   7.0675
     7.5361   7.5361   7.8549   7.8549   8.1968   8.1968   8.6097   8.6097
     8.9244   8.9244   9.3362   9.3362   9.9309   9.9309  11.2508  11.2508
    12.4303  12.4303  12.6109  12.6109  13.4825  13.4825  13.9389  13.9389
    14.2740  14.2740  15.3199  15.3199  16.4321  16.4321  17.4730  17.4730
    18.0380  18.0380  18.5712  18.5712  18.9266  18.9266

          k = 0.0000-0.3175 0.1770 ( 11530 PWs)   bands (ev):

  -197.4726-197.4726-197.4079-197.4079-197.4079-197.4079-142.3809-142.3809
  -142.3809-142.3809-140.9335-140.9335-140.8638-140.8638-140.8630-140.8630
  -135.0676-135.0676-135.0469-135.0469-135.0000-135.0000-134.9996-134.9996
  -134.9744-134.9744-134.9727-134.9727 -98.9909 -98.9909 -98.9909 -98.9909
   -74.2626 -74.2626 -74.2626 -74.2626 -74.2586 -74.2586 -74.2586 -74.2586
   -37.7214 -37.7214 -37.6945 -37.6945 -37.6411 -37.6411 -37.6404 -37.6404
   -37.6096 -37.6096 -37.6061 -37.6061 -36.8284 -36.8284 -36.8186 -36.8186
   -36.7938 -36.7938 -36.7486 -36.7486 -36.7475 -36.7475 -36.7355 -36.7355
   -36.7341 -36.7341 -36.7077 -36.7077 -36.7035 -36.7035 -13.9300 -13.9300
   -13.9296 -13.9296 -13.9210 -13.9210 -13.9199 -13.9199 -10.9466 -10.9466
   -10.9441 -10.9441 -10.9327 -10.9327 -10.9304 -10.9304 -10.9243 -10.9243
   -10.9204 -10.9204  -3.1023  -3.1023  -2.6622  -2.6622  -1.7389  -1.7389
     0.3624   0.3624   1.0329   1.0329   5.9055   5.9055   6.9221   6.9221
     7.4565   7.4565   7.7715   7.7715   8.0292   8.0292   8.5767   8.5767
     8.9360   8.9360   9.2448   9.2448   9.8085   9.8085  11.3576  11.3576
    12.4595  12.4595  12.7042  12.7042  13.3921  13.3921  14.0828  14.0828
    14.3232  14.3232  15.1387  15.1387  16.3992  16.3992  17.7578  17.7578
    18.1489  18.1489  18.8485  18.8485  19.0976  19.0976

          k = 0.0000-0.3464 0.1734 ( 11538 PWs)   bands (ev):

  -197.4726-197.4726-197.4079-197.4079-197.4079-197.4079-142.3809-142.3809
  -142.3809-142.3809-140.9339-140.9339-140.8644-140.8644-140.8631-140.8631
  -135.0680-135.0680-135.0473-135.0473-135.0005-135.0005-134.9996-134.9996
  -134.9749-134.9749-134.9729-134.9729 -98.9909 -98.9909 -98.9909 -98.9909
   -74.2626 -74.2626 -74.2626 -74.2626 -74.2586 -74.2586 -74.2586 -74.2586
   -37.7220 -37.7220 -37.6952 -37.6952 -37.6422 -37.6422 -37.6405 -37.6405
   -37.6105 -37.6105 -37.6064 -37.6064 -36.8290 -36.8290 -36.8191 -36.8191
   -36.7944 -36.7944 -36.7497 -36.7497 -36.7476 -36.7476 -36.7362 -36.7362
   -36.7344 -36.7344 -36.7087 -36.7087 -36.7038 -36.7038 -13.9296 -13.9296
   -13.9293 -13.9293 -13.9209 -13.9209 -13.9199 -13.9199 -10.9469 -10.9469
   -10.9444 -10.9444 -10.9330 -10.9330 -10.9302 -10.9302 -10.9235 -10.9235
   -10.9194 -10.9194  -3.0042  -3.0042  -2.5635  -2.5635  -1.7299  -1.7299
     0.3648   0.3648   0.8898   0.8898   5.7344   5.7344   6.7839   6.7839
     7.3221   7.3221   7.6629   7.6629   7.9489   7.9489   8.5645   8.5645
     8.9337   8.9337   9.1782   9.1782   9.6932   9.6932  11.4422  11.4422
    12.4567  12.4567  12.7783  12.7783  13.3014  13.3014  14.1267  14.1267
    14.4614  14.4614  14.9785  14.9785  16.3977  16.3977  18.0531  18.0531
    18.3010  18.3010  19.1393  19.1393  19.2816  19.2816

          k = 0.0000-0.3753 0.1698 ( 11541 PWs)   bands (ev):

  -197.4726-197.4726-197.4079-197.4079-197.4079-197.4079-142.3809-142.3809
  -142.3809-142.3809-140.9340-140.9340-140.8649-140.8649-140.8628-140.8628
  -135.0681-135.0681-135.0475-135.0475-135.0006-135.0006-134.9997-134.9997
  -134.9755-134.9755-134.9726-134.9726 -98.9909 -98.9909 -98.9909 -98.9909
   -74.2626 -74.2626 -74.2626 -74.2626 -74.2586 -74.2586 -74.2586 -74.2586
   -37.7222 -37.7222 -37.6955 -37.6955 -37.6427 -37.6427 -37.6404 -37.6404
   -37.6117 -37.6117 -37.6059 -37.6059 -36.8293 -36.8293 -36.8192 -36.8192
   -36.7948 -36.7948 -36.7501 -36.7501 -36.7479 -36.7479 -36.7372 -36.7372
   -36.7335 -36.7335 -36.7099 -36.7099 -36.7033 -36.7033 -13.9292 -13.9292
   -13.9290 -13.9290 -13.9209 -13.9209 -13.9200 -13.9200 -10.9473 -10.9473
   -10.9448 -10.9448 -10.9331 -10.9331 -10.9300 -10.9300 -10.9226 -10.9226
   -10.9184 -10.9184  -2.9026  -2.9026  -2.4620  -2.4620  -1.7264  -1.7264
     0.3520   0.3520   0.7577   0.7577   5.5922   5.5922   6.6546   6.6546
     7.1475   7.1475   7.5453   7.5453   7.9405   7.9405   8.5618   8.5618
     8.8942   8.8942   9.1569   9.1569   9.5916   9.5916  11.4979  11.4979
    12.4308  12.4308  12.8317  12.8317  13.2289  13.2289  14.1106  14.1106
    14.5972  14.5972  14.8830  14.8830  16.4248  16.4248  18.3318  18.3318
    18.4980  18.4980  19.3556  19.3556  19.4470  19.4470

          k = 0.0000-0.4041 0.1662 ( 11551 PWs)   bands (ev):

  -197.4726-197.4726-197.4079-197.4079-197.4079-197.4079-142.3809-142.3809
  -142.3809-142.3809-140.9344-140.9344-140.8650-140.8650-140.8637-140.8637
  -135.0682-135.0682-135.0481-135.0481-135.0007-135.0007-134.9999-134.9999
  -134.9756-134.9756-134.9738-134.9738 -98.9909 -98.9909 -98.9909 -98.9909
   -74.2626 -74.2626 -74.2626 -74.2626 -74.2586 -74.2586 -74.2586 -74.2586
   -37.7225 -37.7225 -37.6967 -37.6967 -37.6428 -37.6428 -37.6409 -37.6409
   -37.6118 -37.6118 -37.6081 -37.6081 -36.8298 -36.8298 -36.8194 -36.8194
   -36.7963 -36.7963 -36.7502 -36.7502 -36.7487 -36.7487 -36.7371 -36.7371
   -36.7342 -36.7342 -36.7100 -36.7100 -36.7061 -36.7061 -13.9289 -13.9289
   -13.9287 -13.9287 -13.9208 -13.9208 -13.9200 -13.9200 -10.9478 -10.9478
   -10.9453 -10.9453 -10.9332 -10.9332 -10.9298 -10.9298 -10.9217 -10.9217
   -10.9173 -10.9173  -2.7991  -2.7991  -2.3606  -2.3606  -1.7289  -1.7289
     0.3120   0.3120   0.6519   0.6519   5.4792   5.4792   6.5343   6.5343
     6.9590   6.9590   7.4459   7.4459   7.9589   7.9589   8.5638   8.5638
     8.8251   8.8251   9.1642   9.1642   9.5152   9.5152  11.5171  11.5171
    12.3982  12.3982  12.8599  12.8599  13.1841  13.1841  14.0778  14.0778
    14.5718  14.5718  14.9634  14.9634  16.4779  16.4779  18.5047  18.5047
    18.7531  18.7531  19.2757  19.2757  19.7233  19.7233

          k = 0.0000-0.4330 0.1625 ( 11553 PWs)   bands (ev):

  -197.4726-197.4726-197.4079-197.4079-197.4079-197.4079-142.3809-142.3809
  -142.3809-142.3809-140.9345-140.9345-140.8651-140.8651-140.8637-140.8637
  -135.0681-135.0681-135.0484-135.0484-135.0007-135.0007-134.9998-134.9998
  -134.9758-134.9758-134.9741-134.9741 -98.9909 -98.9909 -98.9909 -98.9909
   -74.2626 -74.2626 -74.2626 -74.2626 -74.2586 -74.2586 -74.2586 -74.2586
   -37.7223 -37.7223 -37.6972 -37.6972 -37.6427 -37.6427 -37.6406 -37.6406
   -37.6122 -37.6122 -37.6087 -37.6087 -36.8298 -36.8298 -36.8192 -36.8192
   -36.7970 -36.7970 -36.7504 -36.7504 -36.7484 -36.7484 -36.7367 -36.7367
   -36.7340 -36.7340 -36.7106 -36.7106 -36.7069 -36.7069 -13.9287 -13.9287
   -13.9284 -13.9284 -13.9207 -13.9207 -13.9200 -13.9200 -10.9483 -10.9483
   -10.9457 -10.9457 -10.9333 -10.9333 -10.9296 -10.9296 -10.9210 -10.9210
   -10.9164 -10.9164  -2.6958  -2.6958  -2.2632  -2.2632  -1.7370  -1.7370
     0.2361   0.2361   0.5853   0.5853   5.3947   5.3947   6.4225   6.4225
     6.7794   6.7794   7.3661   7.3661   7.9875   7.9875   8.5671   8.5671
     8.7522   8.7522   9.1590   9.1590   9.4837   9.4837  11.4966  11.4966
    12.3754  12.3754  12.8615  12.8615  13.1684  13.1684  14.0429  14.0429
    14.4695  14.4695  15.1211  15.1211  16.5559  16.5559  18.4666  18.4666
    19.0297  19.0297  19.3761  19.3761  19.9724  19.9724

          k = 0.0000-0.4619 0.1589 ( 11554 PWs)   bands (ev):

  -197.4726-197.4726-197.4079-197.4079-197.4079-197.4079-142.3809-142.3809
[...]
   -10.9441 -10.9441 -10.9314 -10.9314 -10.9303 -10.9303 -10.9265 -10.9265
   -10.9231 -10.9231  -3.4805  -3.4805  -2.4837  -2.4837  -2.2265  -2.2265
     0.6114   0.6114   1.2807   1.2807   6.8478   6.8478   6.9708   6.9708
     7.4189   7.4189   7.9949   7.9949   8.5321   8.5321   8.9485   8.9485
     9.2198   9.2198   9.6689   9.6689  10.0225  10.0225  11.1876  11.1876
    11.9206  11.9206  12.8141  12.8141  13.0391  13.0391  13.6600  13.6600
    14.2369  14.2369  15.1563  15.1563  16.6898  16.6898  17.9481  17.9481
    18.0190  18.0190  18.2915  18.2915  18.6466  18.6466

          k =-0.2250-0.1299 0.0325 ( 11523 PWs)   bands (ev):

  -197.4726-197.4726-197.4079-197.4079-197.4079-197.4079-142.3809-142.3809
  -142.3809-142.3809-140.9331-140.9331-140.8635-140.8635-140.8625-140.8625
  -135.0675-135.0675-135.0464-135.0464-135.0004-135.0004-134.9988-134.9988
  -134.9733-134.9733-134.9727-134.9727 -98.9909 -98.9909 -98.9909 -98.9909
   -74.2626 -74.2626 -74.2626 -74.2626 -74.2586 -74.2586 -74.2586 -74.2586
   -37.7211 -37.7211 -37.6935 -37.6935 -37.6422 -37.6422 -37.6387 -37.6387
   -37.6075 -37.6075 -37.6062 -37.6062 -36.8285 -36.8285 -36.8174 -36.8174
   -36.7929 -36.7929 -36.7501 -36.7501 -36.7463 -36.7463 -36.7350 -36.7350
   -36.7322 -36.7322 -36.7050 -36.7050 -36.7043 -36.7043 -13.9307 -13.9307
   -13.9304 -13.9304 -13.9212 -13.9212 -13.9197 -13.9197 -10.9465 -10.9465
   -10.9439 -10.9439 -10.9319 -10.9319 -10.9304 -10.9304 -10.9259 -10.9259
   -10.9223 -10.9223  -3.3936  -3.3936  -2.4438  -2.4438  -2.1543  -2.1543
     0.5550   0.5550   1.2083   1.2083   6.6267   6.6267   6.8712   6.8712
     7.2498   7.2498   7.8988   7.8988   8.3745   8.3745   8.7953   8.7953
     9.2670   9.2670   9.6634   9.6634  10.0241  10.0241  11.1471  11.1471
    12.0259  12.0259  12.7720  12.7720  13.0715  13.0715  13.8097  13.8097
    14.4078  14.4078  14.9821  14.9821  16.8227  16.8227  17.7609  17.7609
    18.1981  18.1981  18.4315  18.4315  18.7830  18.7830

          k =-0.2500-0.1443 0.0361 ( 11531 PWs)   bands (ev):

  -197.4726-197.4726-197.4079-197.4079-197.4079-197.4079-142.3809-142.3809
  -142.3809-142.3809-140.9335-140.9335-140.8640-140.8640-140.8628-140.8628
  -135.0678-135.0678-135.0468-135.0468-135.0005-135.0005-134.9993-134.9993
  -134.9739-134.9739-134.9728-134.9728 -98.9909 -98.9909 -98.9909 -98.9909
   -74.2626 -74.2626 -74.2626 -74.2626 -74.2586 -74.2586 -74.2586 -74.2586
   -37.7217 -37.7217 -37.6942 -37.6942 -37.6424 -37.6424 -37.6396 -37.6396
   -37.6085 -37.6085 -37.6064 -37.6064 -36.8291 -36.8291 -36.8179 -36.8179
   -36.7936 -36.7936 -36.7505 -36.7505 -36.7472 -36.7472 -36.7351 -36.7351
   -36.7331 -36.7331 -36.7064 -36.7064 -36.7043 -36.7043 -13.9303 -13.9303
   -13.9300 -13.9300 -13.9211 -13.9211 -13.9198 -13.9198 -10.9465 -10.9465
   -10.9439 -10.9439 -10.9324 -10.9324 -10.9304 -10.9304 -10.9252 -10.9252
   -10.9214 -10.9214  -3.2985  -3.2985  -2.4006  -2.4006  -2.0798  -2.0798
     0.4895   0.4895   1.1304   1.1304   6.3853   6.3853   6.7997   6.7997
     7.1181   7.1181   7.8087   7.8087   8.2235   8.2235   8.6463   8.6463
     9.3005   9.3005   9.6189   9.6189  10.0007  10.0007  11.1421  11.1421
    12.0922  12.0922  12.7364  12.7364  13.1063  13.1063  13.9818  13.9818
    14.5447  14.5447  14.8348  14.8348  16.9545  16.9545  17.5590  17.5590
    18.4082  18.4082  18.6390  18.6390  18.9367  18.9367

          k =-0.2750-0.1588 0.0397 ( 11542 PWs)   bands (ev):

  -197.4726-197.4726-197.4079-197.4079-197.4079-197.4079-142.3809-142.3809
  -142.3809-142.3809-140.9339-140.9339-140.8646-140.8646-140.8631-140.8631
  -135.0680-135.0680-135.0474-135.0474-135.0009-135.0009-134.9994-134.9994
  -134.9747-134.9747-134.9733-134.9733 -98.9909 -98.9909 -98.9909 -98.9909
   -74.2626 -74.2626 -74.2626 -74.2626 -74.2586 -74.2586 -74.2586 -74.2586
   -37.7221 -37.7221 -37.6954 -37.6954 -37.6432 -37.6432 -37.6397 -37.6397
   -37.6101 -37.6101 -37.6072 -37.6072 -36.8296 -36.8296 -36.8184 -36.8184
   -36.7951 -36.7951 -36.7512 -36.7512 -36.7474 -36.7474 -36.7359 -36.7359
   -36.7332 -36.7332 -36.7083 -36.7083 -36.7053 -36.7053 -13.9300 -13.9300
   -13.9296 -13.9296 -13.9210 -13.9210 -13.9199 -13.9199 -10.9467 -10.9467
   -10.9440 -10.9440 -10.9327 -10.9327 -10.9303 -10.9303 -10.9244 -10.9244
   -10.9204 -10.9204  -3.1958  -3.1958  -2.3552  -2.3552  -2.0049  -2.0049
     0.4159   0.4159   1.0481   1.0481   6.1429   6.1429   6.7505   6.7505
     7.0163   7.0163   7.7247   7.7247   8.0811   8.0811   8.5058   8.5058
     9.3025   9.3025   9.5340   9.5340   9.9902   9.9902  11.1478  11.1478
    12.1377  12.1377  12.7014  12.7014  13.1614  13.1614  14.1449  14.1449
    14.6306  14.6306  14.7351  14.7351  16.9863  16.9863  17.4864  17.4864
    18.6453  18.6453  18.8692  18.8692  19.1125  19.1125

          k =-0.3000-0.1732 0.0433 ( 11540 PWs)   bands (ev):

  -197.4726-197.4726-197.4079-197.4079-197.4079-197.4079-142.3809-142.3809
  -142.3809-142.3809-140.9339-140.9339-140.8645-140.8645-140.8630-140.8630
  -135.0681-135.0681-135.0472-135.0472-135.0010-135.0010-134.9993-134.9993
  -134.9743-134.9743-134.9733-134.9733 -98.9909 -98.9909 -98.9909 -98.9909
   -74.2626 -74.2626 -74.2626 -74.2626 -74.2586 -74.2586 -74.2586 -74.2586
   -37.7222 -37.7222 -37.6950 -37.6950 -37.6435 -37.6435 -37.6396 -37.6396
   -37.6094 -37.6094 -37.6071 -37.6071 -36.8299 -36.8299 -36.8181 -36.8181
   -36.7947 -36.7947 -36.7517 -36.7517 -36.7476 -36.7476 -36.7357 -36.7357
   -36.7327 -36.7327 -36.7075 -36.7075 -36.7052 -36.7052 -13.9296 -13.9296
   -13.9293 -13.9293 -13.9209 -13.9209 -13.9199 -13.9199 -10.9470 -10.9470
   -10.9443 -10.9443 -10.9330 -10.9330 -10.9302 -10.9302 -10.9236 -10.9236
   -10.9193 -10.9193  -3.0867  -3.0867  -2.3088  -2.3088  -1.9325  -1.9325
     0.3367   0.3367   0.9625   0.9625   5.9105   5.9105   6.7200   6.7200
     6.9401   6.9401   7.6471   7.6471   7.9495   7.9495   8.3767   8.3767
     9.2198   9.2198   9.4779   9.4779  10.0002  10.0002  11.1429  11.1429
    12.1797  12.1797  12.6696  12.6696  13.2325  13.2325  14.2725  14.2725
    14.5983  14.5983  14.7625  14.7625  16.8485  16.8485  17.6201  17.6201
    18.9070  18.9070  19.1075  19.1075  19.3165  19.3165

          k =-0.3250-0.1876 0.0470 ( 11546 PWs)   bands (ev):

  -197.4726-197.4726-197.4079-197.4079-197.4079-197.4079-142.3809-142.3809
  -142.3809-142.3809-140.9342-140.9342-140.8647-140.8647-140.8633-140.8633
  -135.0681-135.0681-135.0477-135.0477-135.0011-135.0011-134.9993-134.9993
  -134.9748-134.9748-134.9739-134.9739 -98.9909 -98.9909 -98.9909 -98.9909
   -74.2626 -74.2626 -74.2626 -74.2626 -74.2586 -74.2586 -74.2586 -74.2586
   -37.7222 -37.7222 -37.6960 -37.6960 -37.6435 -37.6435 -37.6395 -37.6395
   -37.6103 -37.6103 -37.6082 -37.6082 -36.8299 -36.8299 -36.8183 -36.8183
   -36.7959 -36.7959 -36.7517 -36.7517 -36.7475 -36.7475 -36.7359 -36.7359
   -36.7328 -36.7328 -36.7085 -36.7085 -36.7068 -36.7068 -13.9292 -13.9292
   -13.9290 -13.9290 -13.9209 -13.9209 -13.9200 -13.9200 -10.9474 -10.9474
   -10.9447 -10.9447 -10.9332 -10.9332 -10.9299 -10.9299 -10.9227 -10.9227
   -10.9183 -10.9183  -2.9725  -2.9725  -2.2626  -2.2626  -1.8657  -1.8657
     0.2555   0.2555   0.8747   0.8747   5.6945   5.6945   6.7043   6.7043
     6.8891   6.8891   7.5759   7.5759   7.8309   7.8309   8.2603   8.2603
     9.0511   9.0511   9.4748   9.4748  10.0213  10.0213  11.1185  11.1185
    12.2170  12.2170  12.6573  12.6573  13.3056  13.3056  14.3398  14.3398
    14.5593  14.5593  14.8237  14.8237  16.6604  16.6604  17.8446  17.8446
    19.1904  19.1904  19.3458  19.3458  19.5493  19.5493

          k =-0.3500-0.2021 0.0506 ( 11551 PWs)   bands (ev):

  -197.4726-197.4726-197.4079-197.4079-197.4079-197.4079-142.3809-142.3809
  -142.3809-142.3809-140.9344-140.9344-140.8647-140.8647-140.8638-140.8638
  -135.0681-135.0681-135.0481-135.0481-135.0006-135.0006-134.9999-134.9999
  -134.9751-134.9751-134.9743-134.9743 -98.9909 -98.9909 -98.9909 -98.9909
   -74.2626 -74.2626 -74.2626 -74.2626 -74.2586 -74.2586 -74.2586 -74.2586
   -37.7223 -37.7223 -37.6966 -37.6966 -37.6426 -37.6426 -37.6407 -37.6407
   -37.6109 -37.6109 -37.6090 -37.6090 -36.8300 -36.8300 -36.8185 -36.8185
   -36.7966 -36.7966 -36.7507 -36.7507 -36.7486 -36.7486 -36.7355 -36.7355
   -36.7341 -36.7341 -36.7093 -36.7093 -36.7074 -36.7074 -13.9289 -13.9289
   -13.9287 -13.9287 -13.9208 -13.9208 -13.9200 -13.9200 -10.9479 -10.9479
   -10.9452 -10.9452 -10.9333 -10.9333 -10.9297 -10.9297 -10.9218 -10.9218
   -10.9173 -10.9173  -2.8553  -2.8553  -2.2178  -2.2178  -1.8086  -1.8086
     0.1773   0.1773   0.7859   0.7859   5.4998   5.4998   6.6963   6.6963
     6.8651   6.8651   7.5112   7.5112   7.7273   7.7273   8.1574   8.1574
     8.8525   8.8525   9.4869   9.4869  10.0478  10.0478  11.0774  11.0774
    12.2346  12.2346  12.6842  12.6842  13.3693  13.3693  14.3477  14.3477
    14.5495  14.5495  14.8792  14.8792  16.4805  16.4805  18.1022  18.1022
    19.4918  19.4918  19.5865  19.5865  19.7993  19.7993

          k =-0.3750-0.2165 0.0542 ( 11556 PWs)   bands (ev):

  -197.4726-197.4726-197.4079-197.4079-197.4079-197.4079-142.3809-142.3809
  -142.3809-142.3809-140.9346-140.9346-140.8648-140.8648-140.8642-140.8642
  -135.0685-135.0685-135.0481-135.0481-135.0009-135.0009-135.0003-135.0003
  -134.9749-134.9749-134.9745-134.9745 -98.9909 -98.9909 -98.9909 -98.9909
   -74.2626 -74.2626 -74.2626 -74.2626 -74.2586 -74.2586 -74.2586 -74.2586
   -37.7230 -37.7230 -37.6965 -37.6965 -37.6432 -37.6432 -37.6416 -37.6416
   -37.6105 -37.6105 -37.6094 -37.6094 -36.8309 -36.8309 -36.8188 -36.8188
   -36.7964 -36.7964 -36.7512 -36.7512 -36.7499 -36.7499 -36.7361 -36.7361
   -36.7341 -36.7341 -36.7086 -36.7086 -36.7078 -36.7078 -13.9287 -13.9287
   -13.9284 -13.9284 -13.9207 -13.9207 -13.9200 -13.9200 -10.9484 -10.9484
   -10.9457 -10.9457 -10.9333 -10.9333 -10.9295 -10.9295 -10.9210 -10.9210
   -10.9164 -10.9164  -2.7376  -2.7376  -2.1753  -2.1753  -1.7657  -1.7657
     0.1078   0.1078   0.6976   0.6976   5.3298   5.3298   6.6909   6.6909
     6.8683   6.8683   7.4549   7.4549   7.6413   7.6413   8.0693   8.0693
     8.6481   8.6481   9.5008   9.5008  10.0753  10.0753  11.0264  11.0264
    12.2262  12.2262  12.7539  12.7539  13.4180  13.4180  14.3342  14.3342
    14.5387  14.5387  14.9218  14.9218  16.3262  16.3262  18.3767  18.3767
    19.7992  19.7992  19.8377  19.8377  20.0428  20.0428

          k =-0.4000-0.2309 0.0578 ( 11556 PWs)   bands (ev):

  -197.4726-197.4726-197.4079-197.4079-197.4079-197.4079-142.3809-142.3809
  -142.3809-142.3809-140.9346-140.9346-140.8648-140.8648-140.8642-140.8642
  -135.0683-135.0683-135.0484-135.0484-135.0007-135.0007-135.0001-135.0001
  -134.9754-134.9754-134.9746-134.9746 -98.9909 -98.9909 -98.9909 -98.9909
   -74.2626 -74.2626 -74.2626 -74.2626 -74.2586 -74.2586 -74.2586 -74.2586
   -37.7226 -37.7226 -37.6971 -37.6971 -37.6427 -37.6427 -37.6412 -37.6412
   -37.6111 -37.6111 -37.6097 -37.6097 -36.8308 -36.8308 -36.8181 -36.8181
   -36.7974 -36.7974 -36.7512 -36.7512 -36.7497 -36.7497 -36.7351 -36.7351
   -36.7337 -36.7337 -36.7099 -36.7099 -36.7083 -36.7083 -13.9284 -13.9284
   -13.9283 -13.9283 -13.9206 -13.9206 -13.9200 -13.9200 -10.9489 -10.9489
   -10.9461 -10.9461 -10.9334 -10.9334 -10.9293 -10.9293 -10.9203 -10.9203
   -10.9155 -10.9155  -2.6232  -2.6232  -2.1361  -2.1361  -1.7410  -1.7410
     0.0526   0.0526   0.6123   0.6123   5.1871   5.1871   6.6874   6.6874
     6.8914   6.8914   7.4108   7.4108   7.5737   7.5737   7.9962   7.9962
     8.4497   8.4497   9.5131   9.5131  10.1028  10.1028  10.9731  10.9731
    12.2024  12.2024  12.8515  12.8515  13.4499  13.4499  14.3186  14.3186
    14.5191  14.5191  14.9434  14.9434  16.2042  16.2042  18.6589  18.6589
    20.0662  20.0662  20.1216  20.1216  20.2276  20.2276

          k =-0.4250-0.2454 0.0614 ( 11551 PWs)   bands (ev):

  -197.4726-197.4726-197.4079-197.4079-197.4079-197.4079-142.3809-142.3809
  -142.3809-142.3809-140.9344-140.9344-140.8646-140.8646-140.8640-140.8640
  -135.0682-135.0682-135.0481-135.0481-135.0005-135.0005-135.0001-135.0001
  -134.9750-134.9750-134.9744-134.9744 -98.9909 -98.9909 -98.9909 -98.9909
   -74.2626 -74.2626 -74.2626 -74.2626 -74.2586 -74.2586 -74.2586 -74.2586
   -37.7224 -37.7224 -37.6966 -37.6966 -37.6423 -37.6423 -37.6413 -37.6413
   -37.6107 -37.6107 -37.6092 -37.6092 -36.8305 -36.8305 -36.8180 -36.8180
   -36.7968 -36.7968 -36.7507 -36.7507 -36.7497 -36.7497 -36.7352 -36.7352
   -36.7332 -36.7332 -36.7092 -36.7092 -36.7079 -36.7079 -13.9283 -13.9283
   -13.9281 -13.9281 -13.9205 -13.9205 -13.9200 -13.9200 -10.9493 -10.9493
   -10.9465 -10.9465 -10.9334 -10.9334 -10.9291 -10.9291 -10.9197 -10.9197
   -10.9149 -10.9149  -2.5180  -2.5180  -2.1002  -2.1002  -1.7364  -1.7364
     0.0152   0.0152   0.5339   0.5339   5.0737   5.0737   6.6874   6.6874
     6.9205   6.9205   7.3870   7.3870   7.5246   7.5246   7.9397   7.9397
     8.2652   8.2652   9.5227   9.5227  10.1279  10.1279  10.9238  10.9238
    12.1753  12.1753  12.9581  12.9581  13.4653  13.4653  14.3002  14.3002
    14.5002  14.5002  14.9436  14.9436  16.1163  16.1163  18.9403  18.9403
    20.2709  20.2709  20.3236  20.3236  20.4204  20.4204

          k =-0.4500-0.2598 0.0650 ( 11555 PWs)   bands (ev):

  -197.4726-197.4726-197.4079-197.4079-197.4079-197.4079-142.3809-142.3809
  -142.3809-142.3809-140.9346-140.9346-140.8645-140.8645-140.8644-140.8644
  -135.0681-135.0681-135.0484-135.0484-135.0003-135.0003-135.0002-135.0002
  -134.9752-134.9752-134.9749-134.9749 -98.9909 -98.9909 -98.9909 -98.9909
   -74.2626 -74.2626 -74.2626 -74.2626 -74.2586 -74.2586 -74.2586 -74.2586
   -37.7223 -37.7223 -37.6972 -37.6972 -37.6418 -37.6418 -37.6416 -37.6416
   -37.6109 -37.6109 -37.6102 -37.6102 -36.8303 -36.8303 -36.8182 -36.8182
   -36.7975 -36.7975 -36.7502 -36.7502 -36.7498 -36.7498 -36.7351 -36.7351
   -36.7338 -36.7338 -36.7097 -36.7097 -36.7090 -36.7090 -13.9281 -13.9281
   -13.9280 -13.9280 -13.9204 -13.9204 -13.9200 -13.9200 -10.9496 -10.9496
   -10.9467 -10.9467 -10.9334 -10.9334 -10.9290 -10.9290 -10.9193 -10.9193
   -10.9144 -10.9144  -2.4302  -2.4302  -2.0680  -2.0680  -1.7491  -1.7491
    -0.0044  -0.0044   0.4681   0.4681   4.9916   4.9916   6.6904   6.6904
     6.9426   6.9426   7.3896   7.3896   7.4920   7.4920   7.9007   7.9007
     8.1033   8.1033   9.5293   9.5293  10.1484  10.1484  10.8836  10.8836
    12.1520  12.1520  13.0570  13.0570  13.4655  13.4655  14.2770  14.2770
    14.4916  14.4916  14.9293  14.9293  16.0593  16.0593  19.2046  19.2046
    20.3280  20.3280  20.4894  20.4894  20.5851  20.5851

          k =-0.4750-0.2742 0.0686 ( 11556 PWs)   bands (ev):

  -197.4726-197.4726-197.4079-197.4079-197.4079-197.4079-142.3809-142.3809
  -142.3809-142.3809-140.9346-140.9346-140.8647-140.8647-140.8643-140.8643
  -135.0682-135.0682-135.0484-135.0484-135.0005-135.0005-135.0002-135.0002
  -134.9753-134.9753-134.9748-134.9748 -98.9909 -98.9909 -98.9909 -98.9909
   -74.2626 -74.2626 -74.2626 -74.2626 -74.2586 -74.2586 -74.2586 -74.2586
   -37.7225 -37.7225 -37.6972 -37.6972 -37.6424 -37.6424 -37.6414 -37.6414
   -37.6111 -37.6111 -37.6099 -37.6099 -36.8302 -36.8302 -36.8188 -36.8188
   -36.7972 -36.7972 -36.7502 -36.7502 -36.7497 -36.7497 -36.7362 -36.7362
   -36.7339 -36.7339 -36.7095 -36.7095 -36.7085 -36.7085 -13.9281 -13.9281
   -13.9280 -13.9280 -13.9204 -13.9204 -13.9200 -13.9200 -10.9498 -10.9498
   -10.9469 -10.9469 -10.9334 -10.9334 -10.9289 -10.9289 -10.9190 -10.9190
   -10.9140 -10.9140  -2.3708  -2.3708  -2.0421  -2.0421  -1.7694  -1.7694
    -0.0111  -0.0111   0.4227   0.4227   4.9418   4.9418   6.6943   6.6943
     6.9523   6.9523   7.4106   7.4106   7.4754   7.4754   7.8832   7.8832
     7.9791   7.9791   9.5335   9.5335  10.1621  10.1621  10.8575  10.8575
    12.1370  12.1370  13.1316  13.1316  13.4564  13.4564  14.2556  14.2556
    14.4919  14.4919  14.9127  14.9127  16.0282  16.0282  19.4207  19.4207
    20.2930  20.2930  20.5995  20.5995  20.6537  20.6537

          k =-0.5000-0.2887 0.0722 ( 11554 PWs)   bands (ev):

  -197.4726-197.4726-197.4079-197.4079-197.4079-197.4079-142.3809-142.3809
  -142.3809-142.3809-140.9345-140.9345-140.8646-140.8646-140.8643-140.8643
  -135.0682-135.0682-135.0482-135.0482-135.0004-135.0004-135.0003-135.0003
  -134.9751-134.9751-134.9747-134.9747 -98.9909 -98.9909 -98.9909 -98.9909
   -74.2626 -74.2626 -74.2626 -74.2626 -74.2586 -74.2586 -74.2586 -74.2586
   -37.7225 -37.7225 -37.6969 -37.6969 -37.6419 -37.6419 -37.6418 -37.6418
   -37.6105 -37.6105 -37.6100 -37.6100 -36.8303 -36.8303 -36.8186 -36.8186
   -36.7969 -36.7969 -36.7505 -36.7505 -36.7495 -36.7495 -36.7357 -36.7357
   -36.7340 -36.7340 -36.7094 -36.7094 -36.7081 -36.7081 -13.9280 -13.9280
   -13.9279 -13.9279 -13.9204 -13.9204 -13.9200 -13.9200 -10.9499 -10.9499
   -10.9470 -10.9470 -10.9334 -10.9334 -10.9289 -10.9289 -10.9189 -10.9189
   -10.9139 -10.9139  -2.3496  -2.3496  -2.0310  -2.0310  -1.7797  -1.7797
    -0.0122  -0.0122   0.4064   0.4064   4.9253   4.9253   6.6962   6.6962
     6.9544   6.9544   7.4224   7.4224   7.4724   7.4724   7.8887   7.8887
     7.9194   7.9194   9.5349   9.5349  10.1673  10.1673  10.8484  10.8484
    12.1317  12.1317  13.1609  13.1609  13.4499  13.4499  14.2469  14.2469
    14.4933  14.4933  14.9057  14.9057  16.0187  16.0187  19.5135  19.5135
    20.2553  20.2553  20.6363  20.6363  20.6698  20.6698

     Writing output data file ./wfc-out/bi2se3.save/
 
     init_run     :      0.37s CPU      0.43s WALL (       1 calls)
     electrons    :    284.48s CPU    286.86s WALL (       1 calls)

     Called by init_run:
     wfcinit      :      0.00s CPU      0.02s WALL (       1 calls)
     wfcinit:atom :      0.03s CPU      0.03s WALL (      41 calls)
     wfcinit:wfcr :      8.00s CPU      8.08s WALL (      41 calls)
     potinit      :      0.06s CPU      0.07s WALL (       1 calls)
     hinit0       :      0.26s CPU      0.28s WALL (       1 calls)

     Called by electrons:
     c_bands      :    284.47s CPU    286.83s WALL (       1 calls)
     v_of_rho     :      0.01s CPU      0.01s WALL (       1 calls)
     v_h          :      0.00s CPU      0.00s WALL (       1 calls)
     v_xc         :      0.01s CPU      0.01s WALL (       1 calls)

     Called by c_bands:
     init_us_2    :      0.02s CPU      0.02s WALL (      41 calls)
     cegterg      :    269.12s CPU    271.16s WALL (     122 calls)

     Called by sum_band:

     Called by *egterg:
     cdiaghg      :     73.26s CPU     73.41s WALL (    2044 calls)
     cegterg:over :     42.27s CPU     42.39s WALL (    2003 calls)
     cegterg:upda :     16.43s CPU     16.48s WALL (    2003 calls)
     cegterg:last :     31.12s CPU     31.19s WALL (     692 calls)
     h_psi        :     91.73s CPU     93.43s WALL (    2166 calls)
     g_psi        :      0.22s CPU      0.22s WALL (    2003 calls)

     Called by h_psi:
     h_psi:calbec :     17.73s CPU     17.82s WALL (    2166 calls)
     vloc_psi     :     60.11s CPU     61.68s WALL (    2166 calls)
     add_vuspsi   :     13.62s CPU     13.65s WALL (    2166 calls)

     General routines
     calbec       :     17.72s CPU     17.82s WALL (    2166 calls)
     fft          :      0.15s CPU      0.17s WALL (      18 calls)
     ffts         :      0.00s CPU      0.00s WALL (       4 calls)
     fftw         :     55.22s CPU     56.62s WALL (  412836 calls)
     interpolate  :      0.00s CPU      0.00s WALL (       4 calls)
     davcio       :      0.03s CPU      0.31s WALL (      82 calls)
 
     Parallel routines
     fft_scatt_xy :      3.12s CPU      3.20s WALL (  412858 calls)
     fft_scatt_yz :     31.82s CPU     32.66s WALL (  412858 calls)
 
     PWSCF        :   4m53.50s CPU   5m21.13s WALL

 
   This run was terminated on:  22:24:37   8May2023            

=------------------------------------------------------------------------------=
   JOB DONE.
=------------------------------------------------------------------------------=
