 vasp.5.4.4.18Apr17-6-g9f103f2a35 (build Sep 16 2021 13:51:27) complex          
  
 executed on             LinuxIFC date 2023.03.16  12:57:39
 running on   24 total cores
 distrk:  each k-point on   24 cores,    1 groups
 distr:  one band on NCORES_PER_BAND=  24 cores,    1 groups


--------------------------------------------------------------------------------------------------------


 INCAR:
 POTCAR:    PAW_PBE Sn 08Apr2002                  
 POTCAR:    PAW_PBE Se 06Sep2000                  

 ----------------------------------------------------------------------------- 
|                                                                             |
|           W    W    AA    RRRRR   N    N  II  N    N   GGGG   !!!           |
|           W    W   A  A   R    R  NN   N  II  NN   N  G    G  !!!           |
|           W    W  A    A  R    R  N N  N  II  N N  N  G       !!!           |
|           W WW W  AAAAAA  RRRRR   N  N N  II  N  N N  G  GGG   !            |
|           WW  WW  A    A  R   R   N   NN  II  N   NN  G    G                |
|           W    W  A    A  R    R  N    N  II  N    N   GGGG   !!!           |
|                                                                             |
|      For optimal performance we recommend to set                            |
|        NCORE= 4 - approx SQRT( number of cores)                             |
|      NCORE specifies how many cores store one orbital (NPAR=cpu/NCORE).     |
|      This setting can  greatly improve the performance of VASP for DFT.     |
|      The default,   NCORE=1            might be grossly inefficient         |
|      on modern multi-core architectures or massively parallel machines.     |
|      Do your own testing !!!!                                               |
|      Unfortunately you need to use the default for GW and RPA calculations. |
|      (for HF NCORE is supported but not extensively tested yet)             |
|                                                                             |
 ----------------------------------------------------------------------------- 

 POTCAR:    PAW_PBE Sn 08Apr2002                  
   VRHFIN =Sn: s2p2                                                             
   LEXCH  = PE                                                                  
   EATOM  =    94.0860 eV,    6.9151 Ry                                         
                                                                                
   TITEL  = PAW_PBE Sn 08Apr2002                                                
   LULTRA =        F    use ultrasoft PP ?                                      
   IUNSCR =        1    unscreen: 0-lin 1-nonlin 2-no                           
   RPACOR =    2.000    partial core radius                                     
   POMASS =  118.710; ZVAL   =    4.000    mass and valenz                      
   RCORE  =    3.000    outmost cutoff radius                                   
   RWIGS  =    2.960; RWIGS  =    1.566    wigner-seitz radius (au A)           
   ENMAX  =  103.236; ENMIN  =   77.427 eV                                      
   ICORE  =        3    local potential                                         
   LCOR   =        T    correct aug charges                                     
   LPAW   =        T    paw PP                                                  
   EAUG   =  263.585                                                            
   DEXC   =    0.000                                                            
   RMAX   =    3.078    core radius for proj-oper                               
   RAUG   =    1.300    factor for augmentation sphere                          
   RDEP   =    3.022    radius for radial grids                                 
   RDEPT  =    2.655    core radius for aug-charge                              
                                                                                
   Atomic configuration                                                         
   13 entries                                                                   
     n  l   j            E        occ.                                          
     1  0  0.50    -29007.2859   2.0000                                         
     2  0  0.50     -4378.8056   2.0000                                         
     2  1  1.50     -3930.4293   6.0000                                         
     3  0  0.50      -845.0264   2.0000                                         
     3  1  1.50      -698.5725   6.0000                                         
     3  2  2.50      -473.2839  10.0000                                         
     4  0  0.50      -133.9036   2.0000                                         
     4  1  1.50       -89.6752   6.0000                                         
     4  2  2.50       -25.8375  10.0000                                         
     5  0  0.50       -10.5484   2.0000                                         
     5  1  0.50        -3.6940   2.0000                                         
     5  2  1.50        -1.3606   0.0000                                         
     4  3  2.50        -4.0817   0.0000                                         
   Description                                                                  
     l       E           TYP  RCUT    TYP  RCUT                                 
     0    -10.5483727     23  3.000                                             
     0     27.2116520     23  3.000                                             
     1     -3.6939829     23  3.000                                             
     1      1.9821976     23  3.000                                             
     2     -1.3605826     23  3.000                                             
     3     -2.7211652     23  3.000                                             
  local pseudopotential read in
  partial core-charges read in
  partial kinetic energy density read in
  atomic valenz-charges read in
  non local Contribution for L=           0  read in
    real space projection operators read in
  non local Contribution for L=           0  read in
    real space projection operators read in
  non local Contribution for L=           1  read in
    real space projection operators read in
  non local Contribution for L=           1  read in
    real space projection operators read in
  non local Contribution for L=           2  read in
    real space projection operators read in
    PAW grid and wavefunctions read in
 
   number of l-projection  operators is LMAX  =           5
   number of lm-projection operators is LMMAX =          13
 
 POTCAR:    PAW_PBE Se 06Sep2000                  
   VRHFIN =Se: s2p4                                                             
   LEXCH  = PE                                                                  
   EATOM  =   257.1286 eV,   18.8984 Ry                                         
                                                                                
   TITEL  = PAW_PBE Se 06Sep2000                                                
   LULTRA =        F    use ultrasoft PP ?                                      
   IUNSCR =        1    unscreen: 0-lin 1-nonlin 2-no                           
   RPACOR =    1.900    partial core radius                                     
   POMASS =   78.960; ZVAL   =    6.000    mass and valenz                      
   RCORE  =    2.100    outmost cutoff radius                                   
   RWIGS  =    2.200; RWIGS  =    1.164    wigner-seitz radius (au A)           
   ENMAX  =  211.555; ENMIN  =  158.666 eV                                      
   ICORE  =        3    local potential                                         
   LCOR   =        T    correct aug charges                                     
   LPAW   =        T    paw PP                                                  
   EAUG   =  446.842                                                            
   DEXC   =    0.000                                                            
   RMAX   =    2.147    core radius for proj-oper                               
   RAUG   =    1.300    factor for augmentation sphere                          
   RDEP   =    2.177    radius for radial grids                                 
   RDEPT  =    1.928    core radius for aug-charge                              
                                                                                
   Atomic configuration                                                         
   10 entries                                                                   
     n  l   j            E        occ.                                          
     1  0  0.50    -12503.4787   2.0000                                         
     2  0  0.50     -1606.9547   2.0000                                         
     2  1  1.50     -1413.3140   6.0000                                         
     3  0  0.50      -213.4885   2.0000                                         
     3  1  1.50      -152.9538   6.0000                                         
     3  2  2.50       -53.1221  10.0000                                         
     4  0  0.50       -17.2865   2.0000                                         
     4  1  0.50        -6.5110   4.0000                                         
     4  2  2.50        -6.8029   0.0000                                         
     4  3  2.50        -6.8029   0.0000                                         
   Description                                                                  
     l       E           TYP  RCUT    TYP  RCUT                                 
     0    -17.2865377     23  2.100                                             
     0    -15.3094411     23  2.100                                             
     1     -6.5110275     23  2.100                                             
     1     -0.0695192     23  2.100                                             
     2     -6.8029130     23  2.100                                             
     3     -1.3605826      7  2.100                                             
  local pseudopotential read in
  partial core-charges read in
  partial kinetic energy density read in
  atomic valenz-charges read in
  non local Contribution for L=           0  read in
    real space projection operators read in
  non local Contribution for L=           0  read in
    real space projection operators read in
  non local Contribution for L=           1  read in
    real space projection operators read in
  non local Contribution for L=           1  read in
    real space projection operators read in
  non local Contribution for L=           2  read in
    real space projection operators read in
    PAW grid and wavefunctions read in
 
   number of l-projection  operators is LMAX  =           5
   number of lm-projection operators is LMMAX =          13
 
 WARNING: PSMAXN for non-local potential too small
          PSMAXN should be >   12.5490833729506       NTYP=           1
  PAW_PBE Sn 08Apr2002                  :
 energy of atom  1       EATOM=  -94.0860
 kinetic energy error for atom=    0.0000 (will be added to EATOM!!)
  PAW_PBE Se 06Sep2000                  :
 energy of atom  2       EATOM= -257.1286
 kinetic energy error for atom=    0.0006 (will be added to EATOM!!)
 
 
 POSCAR:  POSCAR with strain of -0.007           
  positions in direct lattice
  No initial velocities read in
 exchange correlation table for  LEXCH =        8
   RHO(1)=    0.500       N(1)  =     2000
   RHO(2)=  100.500       N(2)  =     4000
 


--------------------------------------------------------------------------------------------------------


 ion  position               nearest neighbor table
   1  0.581  0.750  0.569-   4 2.72   3 2.91   3 2.91   3 3.21   3 3.21
   2  0.081  0.250  0.431-   3 2.72   4 2.91   4 2.91   4 3.21   4 3.21
   3  0.033  0.250  0.567-   2 2.72   1 2.91   1 2.91   1 3.21   1 3.21
   4  0.533  0.750  0.433-   1 2.72   2 2.91   2 2.91   2 3.21   2 3.21
 

IMPORTANT INFORMATION: All symmetrisations will be switched off!
NOSYMM: (Re-)initialisation of all symmetry stuff for point group C_1.

 
 
 KPOINTS: KMesh Grid                              

Automatic generation of k-mesh.
Space group operators:
 irot       det(A)        alpha          n_x          n_y          n_z        tau_x        tau_y        tau_z
    1     1.000000     0.000000     1.000000     0.000000     0.000000     0.000000     0.000000     0.000000
 
 Subroutine IBZKPT returns following result:
 ===========================================
 
 Found    113 irreducible k-points:
 
 Following reciprocal coordinates:
            Coordinates               Weight
  0.000000  0.000000  0.000000      1.000000
  0.066667  0.000000  0.000000      2.000000
  0.133333  0.000000  0.000000      2.000000
  0.200000  0.000000  0.000000      2.000000
  0.266667  0.000000  0.000000      2.000000
  0.333333  0.000000  0.000000      2.000000
  0.400000  0.000000  0.000000      2.000000
  0.466667  0.000000  0.000000      2.000000
  0.000000  0.066667  0.000000      2.000000
  0.066667  0.066667  0.000000      2.000000
  0.133333  0.066667  0.000000      2.000000
  0.200000  0.066667  0.000000      2.000000
  0.266667  0.066667  0.000000      2.000000
  0.333333  0.066667  0.000000      2.000000
  0.400000  0.066667  0.000000      2.000000
  0.466667  0.066667  0.000000      2.000000
 -0.466667  0.066667  0.000000      2.000000
 -0.400000  0.066667  0.000000      2.000000
 -0.333333  0.066667  0.000000      2.000000
 -0.266667  0.066667  0.000000      2.000000
 -0.200000  0.066667  0.000000      2.000000
 -0.133333  0.066667  0.000000      2.000000
 -0.066667  0.066667  0.000000      2.000000
  0.000000  0.133333  0.000000      2.000000
  0.066667  0.133333  0.000000      2.000000
  0.133333  0.133333  0.000000      2.000000
  0.200000  0.133333  0.000000      2.000000
  0.266667  0.133333  0.000000      2.000000
  0.333333  0.133333  0.000000      2.000000
  0.400000  0.133333  0.000000      2.000000
  0.466667  0.133333  0.000000      2.000000
 -0.466667  0.133333  0.000000      2.000000
 -0.400000  0.133333  0.000000      2.000000
 -0.333333  0.133333  0.000000      2.000000
 -0.266667  0.133333  0.000000      2.000000
 -0.200000  0.133333  0.000000      2.000000
 -0.133333  0.133333  0.000000      2.000000
 -0.066667  0.133333  0.000000      2.000000
  0.000000  0.200000  0.000000      2.000000
  0.066667  0.200000  0.000000      2.000000
  0.133333  0.200000  0.000000      2.000000
  0.200000  0.200000  0.000000      2.000000
  0.266667  0.200000  0.000000      2.000000
  0.333333  0.200000  0.000000      2.000000
  0.400000  0.200000  0.000000      2.000000
  0.466667  0.200000  0.000000      2.000000
 -0.466667  0.200000  0.000000      2.000000
 -0.400000  0.200000  0.000000      2.000000
 -0.333333  0.200000  0.000000      2.000000
 -0.266667  0.200000  0.000000      2.000000
 -0.200000  0.200000  0.000000      2.000000
 -0.133333  0.200000  0.000000      2.000000
 -0.066667  0.200000  0.000000      2.000000
  0.000000  0.266667  0.000000      2.000000
  0.066667  0.266667  0.000000      2.000000
  0.133333  0.266667  0.000000      2.000000
  0.200000  0.266667  0.000000      2.000000
  0.266667  0.266667  0.000000      2.000000
  0.333333  0.266667  0.000000      2.000000
  0.400000  0.266667  0.000000      2.000000
  0.466667  0.266667  0.000000      2.000000
 -0.466667  0.266667  0.000000      2.000000
 -0.400000  0.266667  0.000000      2.000000
 -0.333333  0.266667  0.000000      2.000000
 -0.266667  0.266667  0.000000      2.000000
 -0.200000  0.266667  0.000000      2.000000
 -0.133333  0.266667  0.000000      2.000000
 -0.066667  0.266667  0.000000      2.000000
  0.000000  0.333333  0.000000      2.000000
  0.066667  0.333333  0.000000      2.000000
  0.133333  0.333333  0.000000      2.000000
  0.200000  0.333333  0.000000      2.000000
  0.266667  0.333333  0.000000      2.000000
  0.333333  0.333333  0.000000      2.000000
  0.400000  0.333333  0.000000      2.000000
  0.466667  0.333333  0.000000      2.000000
 -0.466667  0.333333  0.000000      2.000000
 -0.400000  0.333333  0.000000      2.000000
 -0.333333  0.333333  0.000000      2.000000
 -0.266667  0.333333  0.000000      2.000000
 -0.200000  0.333333  0.000000      2.000000
 -0.133333  0.333333  0.000000      2.000000
 -0.066667  0.333333  0.000000      2.000000
  0.000000  0.400000  0.000000      2.000000
  0.066667  0.400000  0.000000      2.000000
  0.133333  0.400000  0.000000      2.000000
  0.200000  0.400000  0.000000      2.000000
  0.266667  0.400000  0.000000      2.000000
  0.333333  0.400000  0.000000      2.000000
  0.400000  0.400000  0.000000      2.000000
  0.466667  0.400000  0.000000      2.000000
 -0.466667  0.400000  0.000000      2.000000
 -0.400000  0.400000  0.000000      2.000000
 -0.333333  0.400000  0.000000      2.000000
 -0.266667  0.400000  0.000000      2.000000
 -0.200000  0.400000  0.000000      2.000000
 -0.133333  0.400000  0.000000      2.000000
 -0.066667  0.400000  0.000000      2.000000
  0.000000  0.466667  0.000000      2.000000
  0.066667  0.466667  0.000000      2.000000
  0.133333  0.466667  0.000000      2.000000
  0.200000  0.466667  0.000000      2.000000
  0.266667  0.466667  0.000000      2.000000
  0.333333  0.466667  0.000000      2.000000
  0.400000  0.466667  0.000000      2.000000
  0.466667  0.466667  0.000000      2.000000
 -0.466667  0.466667  0.000000      2.000000
 -0.400000  0.466667  0.000000      2.000000
 -0.333333  0.466667  0.000000      2.000000
 -0.266667  0.466667  0.000000      2.000000
 -0.200000  0.466667  0.000000      2.000000
 -0.133333  0.466667  0.000000      2.000000
 -0.066667  0.466667  0.000000      2.000000
 
 Following cartesian coordinates:
            Coordinates               Weight
  0.000000  0.000000  0.000000      1.000000
  0.015213  0.000000  0.000000      2.000000
  0.030425  0.000000  0.000000      2.000000
  0.045638  0.000000  0.000000      2.000000
  0.060850  0.000000  0.000000      2.000000
  0.076063  0.000000  0.000000      2.000000
  0.091275  0.000000  0.000000      2.000000
  0.106488  0.000000  0.000000      2.000000
  0.000000  0.015648  0.000000      2.000000
  0.015213  0.015648  0.000000      2.000000
  0.030425  0.015648  0.000000      2.000000
  0.045638  0.015648  0.000000      2.000000
  0.060850  0.015648  0.000000      2.000000
  0.076063  0.015648  0.000000      2.000000
  0.091275  0.015648  0.000000      2.000000
  0.106488  0.015648  0.000000      2.000000
 -0.106488  0.015648  0.000000      2.000000
 -0.091275  0.015648  0.000000      2.000000
 -0.076063  0.015648  0.000000      2.000000
 -0.060850  0.015648  0.000000      2.000000
 -0.045638  0.015648  0.000000      2.000000
 -0.030425  0.015648  0.000000      2.000000
 -0.015213  0.015648  0.000000      2.000000
  0.000000  0.031297  0.000000      2.000000
  0.015213  0.031297  0.000000      2.000000
  0.030425  0.031297  0.000000      2.000000
  0.045638  0.031297  0.000000      2.000000
  0.060850  0.031297  0.000000      2.000000
  0.076063  0.031297  0.000000      2.000000
  0.091275  0.031297  0.000000      2.000000
  0.106488  0.031297  0.000000      2.000000
 -0.106488  0.031297  0.000000      2.000000
 -0.091275  0.031297  0.000000      2.000000
 -0.076063  0.031297  0.000000      2.000000
 -0.060850  0.031297  0.000000      2.000000
 -0.045638  0.031297  0.000000      2.000000
 -0.030425  0.031297  0.000000      2.000000
 -0.015213  0.031297  0.000000      2.000000
  0.000000  0.046945  0.000000      2.000000
  0.015213  0.046945  0.000000      2.000000
  0.030425  0.046945  0.000000      2.000000
  0.045638  0.046945  0.000000      2.000000
  0.060850  0.046945  0.000000      2.000000
  0.076063  0.046945  0.000000      2.000000
  0.091275  0.046945  0.000000      2.000000
  0.106488  0.046945  0.000000      2.000000
 -0.106488  0.046945  0.000000      2.000000
 -0.091275  0.046945  0.000000      2.000000
 -0.076063  0.046945  0.000000      2.000000
 -0.060850  0.046945  0.000000      2.000000
 -0.045638  0.046945  0.000000      2.000000
 -0.030425  0.046945  0.000000      2.000000
 -0.015213  0.046945  0.000000      2.000000
  0.000000  0.062594  0.000000      2.000000
  0.015213  0.062594  0.000000      2.000000
  0.030425  0.062594  0.000000      2.000000
  0.045638  0.062594  0.000000      2.000000
  0.060850  0.062594  0.000000      2.000000
  0.076063  0.062594  0.000000      2.000000
  0.091275  0.062594  0.000000      2.000000
  0.106488  0.062594  0.000000      2.000000
 -0.106488  0.062594  0.000000      2.000000
 -0.091275  0.062594  0.000000      2.000000
 -0.076063  0.062594  0.000000      2.000000
 -0.060850  0.062594  0.000000      2.000000
 -0.045638  0.062594  0.000000      2.000000
 -0.030425  0.062594  0.000000      2.000000
 -0.015213  0.062594  0.000000      2.000000
  0.000000  0.078242  0.000000      2.000000
  0.015213  0.078242  0.000000      2.000000
  0.030425  0.078242  0.000000      2.000000
  0.045638  0.078242  0.000000      2.000000
  0.060850  0.078242  0.000000      2.000000
  0.076063  0.078242  0.000000      2.000000
  0.091275  0.078242  0.000000      2.000000
  0.106488  0.078242  0.000000      2.000000
 -0.106488  0.078242  0.000000      2.000000
 -0.091275  0.078242  0.000000      2.000000
 -0.076063  0.078242  0.000000      2.000000
 -0.060850  0.078242  0.000000      2.000000
 -0.045638  0.078242  0.000000      2.000000
 -0.030425  0.078242  0.000000      2.000000
 -0.015213  0.078242  0.000000      2.000000
  0.000000  0.093890  0.000000      2.000000
  0.015213  0.093890  0.000000      2.000000
  0.030425  0.093890  0.000000      2.000000
  0.045638  0.093890  0.000000      2.000000
  0.060850  0.093890  0.000000      2.000000
  0.076063  0.093890  0.000000      2.000000
  0.091275  0.093890  0.000000      2.000000
  0.106488  0.093890  0.000000      2.000000
 -0.106488  0.093890  0.000000      2.000000
 -0.091275  0.093890  0.000000      2.000000
 -0.076063  0.093890  0.000000      2.000000
 -0.060850  0.093890  0.000000      2.000000
 -0.045638  0.093890  0.000000      2.000000
 -0.030425  0.093890  0.000000      2.000000
 -0.015213  0.093890  0.000000      2.000000
  0.000000  0.109539  0.000000      2.000000
  0.015213  0.109539  0.000000      2.000000
  0.030425  0.109539  0.000000      2.000000
  0.045638  0.109539  0.000000      2.000000
  0.060850  0.109539  0.000000      2.000000
  0.076063  0.109539  0.000000      2.000000
  0.091275  0.109539  0.000000      2.000000
  0.106488  0.109539  0.000000      2.000000
 -0.106488  0.109539  0.000000      2.000000
 -0.091275  0.109539  0.000000      2.000000
 -0.076063  0.109539  0.000000      2.000000
 -0.060850  0.109539  0.000000      2.000000
 -0.045638  0.109539  0.000000      2.000000
 -0.030425  0.109539  0.000000      2.000000
 -0.015213  0.109539  0.000000      2.000000
 


--------------------------------------------------------------------------------------------------------




 Dimension of arrays:
   k-points           NKPTS =    113   k-points in BZ     NKDIM =    113   number of bands    NBANDS=     14
   number of dos      NEDOS =    301   number of ions     NIONS =      4
   non local maximal  LDIM  =      5   non local SUM 2l+1 LMDIM =     13
   total plane-waves  NPLWV = 207360
   max r-space proj   IRMAX =      1   max aug-charges    IRDMAX=  53648
   dimension x,y,z NGX =    36 NGY =   36 NGZ =  160
   dimension x,y,z NGXF=    72 NGYF=   72 NGZF=  320
   support grid    NGXF=    72 NGYF=   72 NGZF=  320
   ions per type =               2   2
   NGX,Y,Z   is equivalent  to a cutoff of  13.66, 14.05, 13.30 a.u.
   NGXF,Y,Z  is equivalent  to a cutoff of  27.31, 28.10, 26.60 a.u.

 SYSTEM =  SnSe                                    
 POSCAR =   POSCAR with strain of -0.007           

 Startparameter for this run:
   NWRITE =      2    write-flag & timer
   PREC   = accura    normal or accurate (medium, high low for compatibility)
   ISTART =      0    job   : 0-new  1-cont  2-samecut
   ICHARG =      2    charge: 1-file 2-atom 10-const
   ISPIN  =      1    spin polarized calculation?
   LNONCOLLINEAR =      F non collinear calculations
   LSORBIT =      F    spin-orbit coupling
   INIWAV =      1    electr: 0-lowe 1-rand  2-diag
   LASPH  =      F    aspherical Exc in radial PAW
   METAGGA=      F    non-selfconsistent MetaGGA calc.

 Electronic Relaxation 1
   ENCUT  =  600.0 eV  44.10 Ry    6.64 a.u.   8.75  8.51 39.94*2*pi/ulx,y,z
   ENINI  =  600.0     initial cutoff
   ENAUG  =  446.8 eV  augmentation charge cutoff
   NELM   =     60;   NELMIN=  2; NELMDL= -5     # of ELM steps 
   EDIFF  = 0.1E-05   stopping-criterion for ELM
   LREAL  =      F    real-space projection
   NLSPLINE    = F    spline interpolate recip. space projectors
   LCOMPAT=      F    compatible to vasp.4.4
   GGA_COMPAT  = T    GGA compatible to vasp.4.4-vasp.4.6
   LMAXPAW     = -100 max onsite density
   LMAXMIX     =    2 max onsite mixed and CHGCAR
   VOSKOWN=      0    Vosko Wilk Nusair interpolation
   ROPT   =    0.00000   0.00000
 Ionic relaxation
   EDIFFG = -.1E-02   stopping-criterion for IOM
   NSW    =    100    number of steps for IOM
   NBLOCK =      1;   KBLOCK =    100    inner block; outer block 
   IBRION =      2    ionic relax: 0-MD 1-quasi-New 2-CG
   NFREE  =      1    steps in history (QN), initial steepest desc. (CG)
   ISIF   =      2    stress and relaxation
   IWAVPR =     11    prediction:  0-non 1-charg 2-wave 3-comb
   ISYM   =      0    0-nonsym 1-usesym 2-fastsym
   LCORR  =      T    Harris-Foulkes like correction to forces

   POTIM  = 0.5000    time-step for ionic-motion
   TEIN   =    0.0    initial temperature
   TEBEG  =    0.0;   TEEND  =   0.0 temperature during run
   SMASS  =  -3.00    Nose mass-parameter (am)
   estimated Nose-frequenzy (Omega)   =  0.10E-29 period in steps =****** mass=  -0.439E-27a.u.
   SCALEE = 1.0000    scale energy and forces
   NPACO  =    256;   APACO  = 16.0  distance and # of slots for P.C.
   PSTRESS=    0.0 pullay stress

  Mass of Ions in am
   POMASS = 118.71 78.96
  Ionic Valenz
   ZVAL   =   4.00  6.00
  Atomic Wigner-Seitz radii
   RWIGS  =  -1.00 -1.00
  virtual crystal weights 
   VCA    =   1.00  1.00
   NELECT =      20.0000    total number of electrons
   NUPDOWN=      -1.0000    fix difference up-down

 DOS related values:
   EMIN   =  10.00;   EMAX   =-10.00  energy-range for DOS
   EFERMI =   0.00
   ISMEAR =     0;   SIGMA  =   0.10  broadening in eV -4-tet -1-fermi 0-gaus

 Electronic relaxation 2 (details)
   IALGO  =     38    algorithm
   LDIAG  =      T    sub-space diagonalisation (order eigenvalues)
   LSUBROT=      F    optimize rotation matrix (better conditioning)
   TURBO    =      0    0=normal 1=particle mesh
   IRESTART =      0    0=no restart 2=restart with 2 vectors
   NREBOOT  =      0    no. of reboots
   NMIN     =      0    reboot dimension
   EREF     =   0.00    reference energy to select bands
   IMIX   =      4    mixing-type and parameters
     AMIX     =   0.40;   BMIX     =  1.00
     AMIX_MAG =   1.60;   BMIX_MAG =  1.00
     AMIN     =   0.10
     WC   =   100.;   INIMIX=   1;  MIXPRE=   1;  MAXMIX= -45

 Intra band minimization:
   WEIMIN = 0.0010     energy-eigenvalue tresh-hold
   EBREAK =  0.18E-07  absolut break condition
   DEPER  =   0.30     relativ break condition  

   TIME   =   0.40     timestep for ELM

  volume/ion in A,a.u.               =      93.35       629.96
  Fermi-wavevector in a.u.,A,eV,Ry     =   0.617105  1.166160  5.181359  0.380819
  Thomas-Fermi vector in A             =   1.675072
 
 Write flags
   LWAVE        =      T    write WAVECAR
   LDOWNSAMPLE  =      F    k-point downsampling of WAVECAR
   LCHARG       =      T    write CHGCAR
   LVTOT        =      F    write LOCPOT, total local potential
   LVHAR        =      F    write LOCPOT, Hartree potential only
   LELF         =      F    write electronic localiz. function (ELF)
   LORBIT       =      0    0 simple, 1 ext, 2 COOP (PROOUT), +10 PAW based schemes


 Dipole corrections
   LMONO  =      F    monopole corrections only (constant potential shift)
   LDIPOL =      F    correct potential (dipole corrections)
   IDIPOL =      0    1-x, 2-y, 3-z, 4-all directions 
   EPSILON=  1.0000000 bulk dielectric constant

 Exchange correlation treatment:
   GGA     =    PE    GGA type
   LEXCH   =     8    internal setting for exchange type
   VOSKOWN=      0    Vosko Wilk Nusair interpolation
   LHFCALC =     F    Hartree Fock is set to
   LHFONE  =     F    Hartree Fock one center treatment
   AEXX    =    0.0000 exact exchange contribution

 Linear response parameters
   LEPSILON=     F    determine dielectric tensor
   LRPA    =     F    only Hartree local field effects (RPA)
   LNABLA  =     F    use nabla operator in PAW spheres
   LVEL    =     F    velocity operator in full k-point grid
   LINTERFAST=   F  fast interpolation
   KINTER  =     0    interpolate to denser k-point grid
   CSHIFT  =0.1000    complex shift for real part using Kramers Kronig
   OMEGAMAX=  -1.0    maximum frequency
   DEG_THRESHOLD= 0.2000000E-02 threshold for treating states as degnerate
   RTIME   =   -0.100 relaxation time in fs
  (WPLASMAI=    0.000 imaginary part of plasma frequency in eV, 0.658/RTIME)
   DFIELD  = 0.0000000 0.0000000 0.0000000 field for delta impulse in time
 
 Orbital magnetization related:
   ORBITALMAG=     F  switch on orbital magnetization
   LCHIMAG   =     F  perturbation theory with respect to B field
   DQ        =  0.001000  dq finite difference perturbation B field
   LLRAUG    =     F  two centre corrections for induced B field



--------------------------------------------------------------------------------------------------------


 conjugate gradient relaxation of ions
 charge density and potential will be updated during run
 non-spin polarized calculation
 Variant of blocked Davidson
 Davidson routine will perform the subspace rotation
 perform sub-space diagonalisation
    after iterative eigenvector-optimisation
 modified Broyden-mixing scheme, WC =      100.0
 initial mixing is a Kerker type mixing with AMIX =  0.4000 and BMIX =      1.0000
 Hartree-type preconditioning will be used
 using additional bands            4
 reciprocal scheme for non local part
 use partial core corrections
 calculate Harris-corrections to forces 
   (improved forces if not selfconsistent)
 use gradient corrections 
 use of overlap-Matrix (Vanderbilt PP)
 Gauss-broadening in eV      SIGMA  =   0.10


--------------------------------------------------------------------------------------------------------


  energy-cutoff  :      600.00
  volume of cell :      373.40
      direct lattice vectors                 reciprocal lattice vectors
     4.382356765  0.000000000  0.000000000     0.228187720  0.000000000  0.000000000
     0.000000000  4.260284273  0.000000000     0.000000000  0.234726121  0.000000000
     0.000000000  0.000000000 20.000000000     0.000000000  0.000000000  0.050000000

  length of vectors
     4.382356765  4.260284273 20.000000000     0.228187720  0.234726121  0.050000000


 
 k-points in units of 2pi/SCALE and weight: KMesh Grid                              
   0.00000000  0.00000000  0.00000000       0.004
   0.01521251  0.00000000  0.00000000       0.009
   0.03042503  0.00000000  0.00000000       0.009
   0.04563754  0.00000000  0.00000000       0.009
   0.06085006  0.00000000  0.00000000       0.009
   0.07606257  0.00000000  0.00000000       0.009
   0.09127509  0.00000000  0.00000000       0.009
   0.10648760  0.00000000  0.00000000       0.009
   0.00000000  0.01564841  0.00000000       0.009
   0.01521251  0.01564841  0.00000000       0.009
   0.03042503  0.01564841  0.00000000       0.009
   0.04563754  0.01564841  0.00000000       0.009
   0.06085006  0.01564841  0.00000000       0.009
   0.07606257  0.01564841  0.00000000       0.009
   0.09127509  0.01564841  0.00000000       0.009
   0.10648760  0.01564841  0.00000000       0.009
  -0.10648760  0.01564841  0.00000000       0.009
  -0.09127509  0.01564841  0.00000000       0.009
  -0.07606257  0.01564841  0.00000000       0.009
  -0.06085006  0.01564841  0.00000000       0.009
  -0.04563754  0.01564841  0.00000000       0.009
  -0.03042503  0.01564841  0.00000000       0.009
  -0.01521251  0.01564841  0.00000000       0.009
   0.00000000  0.03129682  0.00000000       0.009
   0.01521251  0.03129682  0.00000000       0.009
   0.03042503  0.03129682  0.00000000       0.009
   0.04563754  0.03129682  0.00000000       0.009
   0.06085006  0.03129682  0.00000000       0.009
   0.07606257  0.03129682  0.00000000       0.009
   0.09127509  0.03129682  0.00000000       0.009
   0.10648760  0.03129682  0.00000000       0.009
  -0.10648760  0.03129682  0.00000000       0.009
  -0.09127509  0.03129682  0.00000000       0.009
  -0.07606257  0.03129682  0.00000000       0.009
  -0.06085006  0.03129682  0.00000000       0.009
  -0.04563754  0.03129682  0.00000000       0.009
  -0.03042503  0.03129682  0.00000000       0.009
  -0.01521251  0.03129682  0.00000000       0.009
   0.00000000  0.04694522  0.00000000       0.009
   0.01521251  0.04694522  0.00000000       0.009
   0.03042503  0.04694522  0.00000000       0.009
   0.04563754  0.04694522  0.00000000       0.009
   0.06085006  0.04694522  0.00000000       0.009
   0.07606257  0.04694522  0.00000000       0.009
   0.09127509  0.04694522  0.00000000       0.009
   0.10648760  0.04694522  0.00000000       0.009
  -0.10648760  0.04694522  0.00000000       0.009
  -0.09127509  0.04694522  0.00000000       0.009
  -0.07606257  0.04694522  0.00000000       0.009
  -0.06085006  0.04694522  0.00000000       0.009
  -0.04563754  0.04694522  0.00000000       0.009
  -0.03042503  0.04694522  0.00000000       0.009
  -0.01521251  0.04694522  0.00000000       0.009
   0.00000000  0.06259363  0.00000000       0.009
   0.01521251  0.06259363  0.00000000       0.009
   0.03042503  0.06259363  0.00000000       0.009
   0.04563754  0.06259363  0.00000000       0.009
   0.06085006  0.06259363  0.00000000       0.009
   0.07606257  0.06259363  0.00000000       0.009
   0.09127509  0.06259363  0.00000000       0.009
   0.10648760  0.06259363  0.00000000       0.009
  -0.10648760  0.06259363  0.00000000       0.009
  -0.09127509  0.06259363  0.00000000       0.009
  -0.07606257  0.06259363  0.00000000       0.009
  -0.06085006  0.06259363  0.00000000       0.009
  -0.04563754  0.06259363  0.00000000       0.009
  -0.03042503  0.06259363  0.00000000       0.009
  -0.01521251  0.06259363  0.00000000       0.009
   0.00000000  0.07824204  0.00000000       0.009
   0.01521251  0.07824204  0.00000000       0.009
   0.03042503  0.07824204  0.00000000       0.009
   0.04563754  0.07824204  0.00000000       0.009
   0.06085006  0.07824204  0.00000000       0.009
   0.07606257  0.07824204  0.00000000       0.009
   0.09127509  0.07824204  0.00000000       0.009
   0.10648760  0.07824204  0.00000000       0.009
  -0.10648760  0.07824204  0.00000000       0.009
  -0.09127509  0.07824204  0.00000000       0.009
  -0.07606257  0.07824204  0.00000000       0.009
  -0.06085006  0.07824204  0.00000000       0.009
  -0.04563754  0.07824204  0.00000000       0.009
  -0.03042503  0.07824204  0.00000000       0.009
  -0.01521251  0.07824204  0.00000000       0.009
   0.00000000  0.09389045  0.00000000       0.009
   0.01521251  0.09389045  0.00000000       0.009
   0.03042503  0.09389045  0.00000000       0.009
   0.04563754  0.09389045  0.00000000       0.009
   0.06085006  0.09389045  0.00000000       0.009
   0.07606257  0.09389045  0.00000000       0.009
   0.09127509  0.09389045  0.00000000       0.009
   0.10648760  0.09389045  0.00000000       0.009
  -0.10648760  0.09389045  0.00000000       0.009
  -0.09127509  0.09389045  0.00000000       0.009
  -0.07606257  0.09389045  0.00000000       0.009
  -0.06085006  0.09389045  0.00000000       0.009
  -0.04563754  0.09389045  0.00000000       0.009
  -0.03042503  0.09389045  0.00000000       0.009
  -0.01521251  0.09389045  0.00000000       0.009
   0.00000000  0.10953886  0.00000000       0.009
   0.01521251  0.10953886  0.00000000       0.009
   0.03042503  0.10953886  0.00000000       0.009
   0.04563754  0.10953886  0.00000000       0.009
   0.06085006  0.10953886  0.00000000       0.009
   0.07606257  0.10953886  0.00000000       0.009
   0.09127509  0.10953886  0.00000000       0.009
   0.10648760  0.10953886  0.00000000       0.009
  -0.10648760  0.10953886  0.00000000       0.009
  -0.09127509  0.10953886  0.00000000       0.009
  -0.07606257  0.10953886  0.00000000       0.009
  -0.06085006  0.10953886  0.00000000       0.009
  -0.04563754  0.10953886  0.00000000       0.009
  -0.03042503  0.10953886  0.00000000       0.009
  -0.01521251  0.10953886  0.00000000       0.009
 
 k-points in reciprocal lattice and weights: KMesh Grid                              
   0.00000000  0.00000000  0.00000000       0.004
   0.06666667  0.00000000  0.00000000       0.009
   0.13333333  0.00000000  0.00000000       0.009
   0.20000000  0.00000000  0.00000000       0.009
   0.26666667  0.00000000  0.00000000       0.009
   0.33333333  0.00000000  0.00000000       0.009
   0.40000000  0.00000000  0.00000000       0.009
   0.46666667  0.00000000  0.00000000       0.009
   0.00000000  0.06666667  0.00000000       0.009
   0.06666667  0.06666667  0.00000000       0.009
   0.13333333  0.06666667  0.00000000       0.009
   0.20000000  0.06666667  0.00000000       0.009
   0.26666667  0.06666667  0.00000000       0.009
   0.33333333  0.06666667  0.00000000       0.009
   0.40000000  0.06666667  0.00000000       0.009
   0.46666667  0.06666667  0.00000000       0.009
  -0.46666667  0.06666667  0.00000000       0.009
  -0.40000000  0.06666667  0.00000000       0.009
  -0.33333333  0.06666667  0.00000000       0.009
  -0.26666667  0.06666667  0.00000000       0.009
  -0.20000000  0.06666667  0.00000000       0.009
  -0.13333333  0.06666667  0.00000000       0.009
  -0.06666667  0.06666667  0.00000000       0.009
   0.00000000  0.13333333  0.00000000       0.009
   0.06666667  0.13333333  0.00000000       0.009
   0.13333333  0.13333333  0.00000000       0.009
   0.20000000  0.13333333  0.00000000       0.009
   0.26666667  0.13333333  0.00000000       0.009
   0.33333333  0.13333333  0.00000000       0.009
   0.40000000  0.13333333  0.00000000       0.009
   0.46666667  0.13333333  0.00000000       0.009
  -0.46666667  0.13333333  0.00000000       0.009
  -0.40000000  0.13333333  0.00000000       0.009
  -0.33333333  0.13333333  0.00000000       0.009
  -0.26666667  0.13333333  0.00000000       0.009
  -0.20000000  0.13333333  0.00000000       0.009
  -0.13333333  0.13333333  0.00000000       0.009
  -0.06666667  0.13333333  0.00000000       0.009
   0.00000000  0.20000000  0.00000000       0.009
   0.06666667  0.20000000  0.00000000       0.009
   0.13333333  0.20000000  0.00000000       0.009
   0.20000000  0.20000000  0.00000000       0.009
   0.26666667  0.20000000  0.00000000       0.009
   0.33333333  0.20000000  0.00000000       0.009
   0.40000000  0.20000000  0.00000000       0.009
   0.46666667  0.20000000  0.00000000       0.009
  -0.46666667  0.20000000  0.00000000       0.009
  -0.40000000  0.20000000  0.00000000       0.009
  -0.33333333  0.20000000  0.00000000       0.009
  -0.26666667  0.20000000  0.00000000       0.009
  -0.20000000  0.20000000  0.00000000       0.009
  -0.13333333  0.20000000  0.00000000       0.009
  -0.06666667  0.20000000  0.00000000       0.009
   0.00000000  0.26666667  0.00000000       0.009
   0.06666667  0.26666667  0.00000000       0.009
   0.13333333  0.26666667  0.00000000       0.009
   0.20000000  0.26666667  0.00000000       0.009
   0.26666667  0.26666667  0.00000000       0.009
   0.33333333  0.26666667  0.00000000       0.009
   0.40000000  0.26666667  0.00000000       0.009
   0.46666667  0.26666667  0.00000000       0.009
  -0.46666667  0.26666667  0.00000000       0.009
  -0.40000000  0.26666667  0.00000000       0.009
  -0.33333333  0.26666667  0.00000000       0.009
  -0.26666667  0.26666667  0.00000000       0.009
  -0.20000000  0.26666667  0.00000000       0.009
  -0.13333333  0.26666667  0.00000000       0.009
  -0.06666667  0.26666667  0.00000000       0.009
   0.00000000  0.33333333  0.00000000       0.009
   0.06666667  0.33333333  0.00000000       0.009
   0.13333333  0.33333333  0.00000000       0.009
   0.20000000  0.33333333  0.00000000       0.009
   0.26666667  0.33333333  0.00000000       0.009
   0.33333333  0.33333333  0.00000000       0.009
   0.40000000  0.33333333  0.00000000       0.009
   0.46666667  0.33333333  0.00000000       0.009
  -0.46666667  0.33333333  0.00000000       0.009
  -0.40000000  0.33333333  0.00000000       0.009
  -0.33333333  0.33333333  0.00000000       0.009
  -0.26666667  0.33333333  0.00000000       0.009
  -0.20000000  0.33333333  0.00000000       0.009
  -0.13333333  0.33333333  0.00000000       0.009
  -0.06666667  0.33333333  0.00000000       0.009
   0.00000000  0.40000000  0.00000000       0.009
   0.06666667  0.40000000  0.00000000       0.009
   0.13333333  0.40000000  0.00000000       0.009
   0.20000000  0.40000000  0.00000000       0.009
   0.26666667  0.40000000  0.00000000       0.009
   0.33333333  0.40000000  0.00000000       0.009
   0.40000000  0.40000000  0.00000000       0.009
   0.46666667  0.40000000  0.00000000       0.009
  -0.46666667  0.40000000  0.00000000       0.009
  -0.40000000  0.40000000  0.00000000       0.009
  -0.33333333  0.40000000  0.00000000       0.009
  -0.26666667  0.40000000  0.00000000       0.009
  -0.20000000  0.40000000  0.00000000       0.009
  -0.13333333  0.40000000  0.00000000       0.009
  -0.06666667  0.40000000  0.00000000       0.009
   0.00000000  0.46666667  0.00000000       0.009
   0.06666667  0.46666667  0.00000000       0.009
   0.13333333  0.46666667  0.00000000       0.009
   0.20000000  0.46666667  0.00000000       0.009
   0.26666667  0.46666667  0.00000000       0.009
   0.33333333  0.46666667  0.00000000       0.009
   0.40000000  0.46666667  0.00000000       0.009
   0.46666667  0.46666667  0.00000000       0.009
  -0.46666667  0.46666667  0.00000000       0.009
  -0.40000000  0.46666667  0.00000000       0.009
  -0.33333333  0.46666667  0.00000000       0.009
  -0.26666667  0.46666667  0.00000000       0.009
  -0.20000000  0.46666667  0.00000000       0.009
  -0.13333333  0.46666667  0.00000000       0.009
  -0.06666667  0.46666667  0.00000000       0.009
 
 position of ions in fractional coordinates (direct lattice) 
   0.58124336  0.75000000  0.56874314
   0.08124336  0.25000000  0.43125686
   0.03286064  0.25000000  0.56707387
   0.53286061  0.75000000  0.43292613
 
 position of ions in cartesian coordinates  (Angst):
   2.54721576  3.19521320 11.37486283
   0.35603738  1.06507107  8.62513717
   0.14400706  1.06507107 11.34147733
   2.33518532  3.19521320  8.65852267
 


--------------------------------------------------------------------------------------------------------


 k-point  1 :   0.0000 0.0000 0.0000  plane waves:   12467
 k-point  2 :   0.0667 0.0000 0.0000  plane waves:   12465
 k-point  3 :   0.1333 0.0000 0.0000  plane waves:   12491
 k-point  4 :   0.2000 0.0000 0.0000  plane waves:   12461
 k-point  5 :   0.2667 0.0000 0.0000  plane waves:   12462
 k-point  6 :   0.3333 0.0000 0.0000  plane waves:   12502
 k-point  7 :   0.4000 0.0000 0.0000  plane waves:   12526
 k-point  8 :   0.4667 0.0000 0.0000  plane waves:   12514
 k-point  9 :   0.0000 0.0667 0.0000  plane waves:   12497
 k-point 10 :   0.0667 0.0667 0.0000  plane waves:   12488
 k-point 11 :   0.1333 0.0667 0.0000  plane waves:   12469
 k-point 12 :   0.2000 0.0667 0.0000  plane waves:   12450
 k-point 13 :   0.2667 0.0667 0.0000  plane waves:   12462
 k-point 14 :   0.3333 0.0667 0.0000  plane waves:   12482
 k-point 15 :   0.4000 0.0667 0.0000  plane waves:   12518
 k-point 16 :   0.4667 0.0667 0.0000  plane waves:   12502
 k-point 17 :  -0.4667 0.0667 0.0000  plane waves:   12502
 k-point 18 :  -0.4000 0.0667 0.0000  plane waves:   12518
 k-point 19 :  -0.3333 0.0667 0.0000  plane waves:   12482
 k-point 20 :  -0.2667 0.0667 0.0000  plane waves:   12462
 k-point 21 :  -0.2000 0.0667 0.0000  plane waves:   12450
 k-point 22 :  -0.1333 0.0667 0.0000  plane waves:   12469
 k-point 23 :  -0.0667 0.0667 0.0000  plane waves:   12488
 k-point 24 :   0.0000 0.1333 0.0000  plane waves:   12479
 k-point 25 :   0.0667 0.1333 0.0000  plane waves:   12482
 k-point 26 :   0.1333 0.1333 0.0000  plane waves:   12463
 k-point 27 :   0.2000 0.1333 0.0000  plane waves:   12450
 k-point 28 :   0.2667 0.1333 0.0000  plane waves:   12460
 k-point 29 :   0.3333 0.1333 0.0000  plane waves:   12472
 k-point 30 :   0.4000 0.1333 0.0000  plane waves:   12473
 k-point 31 :   0.4667 0.1333 0.0000  plane waves:   12489
 k-point 32 :  -0.4667 0.1333 0.0000  plane waves:   12489
 k-point 33 :  -0.4000 0.1333 0.0000  plane waves:   12473
 k-point 34 :  -0.3333 0.1333 0.0000  plane waves:   12472
 k-point 35 :  -0.2667 0.1333 0.0000  plane waves:   12460
 k-point 36 :  -0.2000 0.1333 0.0000  plane waves:   12450
 k-point 37 :  -0.1333 0.1333 0.0000  plane waves:   12463
 k-point 38 :  -0.0667 0.1333 0.0000  plane waves:   12482
 k-point 39 :   0.0000 0.2000 0.0000  plane waves:   12477
 k-point 40 :   0.0667 0.2000 0.0000  plane waves:   12468
 k-point 41 :   0.1333 0.2000 0.0000  plane waves:   12480
 k-point 42 :   0.2000 0.2000 0.0000  plane waves:   12473
 k-point 43 :   0.2667 0.2000 0.0000  plane waves:   12449
 k-point 44 :   0.3333 0.2000 0.0000  plane waves:   12466
 k-point 45 :   0.4000 0.2000 0.0000  plane waves:   12450
 k-point 46 :   0.4667 0.2000 0.0000  plane waves:   12475
 k-point 47 :  -0.4667 0.2000 0.0000  plane waves:   12475
 k-point 48 :  -0.4000 0.2000 0.0000  plane waves:   12450
 k-point 49 :  -0.3333 0.2000 0.0000  plane waves:   12466
 k-point 50 :  -0.2667 0.2000 0.0000  plane waves:   12449
 k-point 51 :  -0.2000 0.2000 0.0000  plane waves:   12473
 k-point 52 :  -0.1333 0.2000 0.0000  plane waves:   12480
 k-point 53 :  -0.0667 0.2000 0.0000  plane waves:   12468
 k-point 54 :   0.0000 0.2667 0.0000  plane waves:   12487
 k-point 55 :   0.0667 0.2667 0.0000  plane waves:   12453
 k-point 56 :   0.1333 0.2667 0.0000  plane waves:   12459
 k-point 57 :   0.2000 0.2667 0.0000  plane waves:   12462
 k-point 58 :   0.2667 0.2667 0.0000  plane waves:   12455
 k-point 59 :   0.3333 0.2667 0.0000  plane waves:   12450
 k-point 60 :   0.4000 0.2667 0.0000  plane waves:   12469
 k-point 61 :   0.4667 0.2667 0.0000  plane waves:   12473
 k-point 62 :  -0.4667 0.2667 0.0000  plane waves:   12473
 k-point 63 :  -0.4000 0.2667 0.0000  plane waves:   12469
 k-point 64 :  -0.3333 0.2667 0.0000  plane waves:   12450
 k-point 65 :  -0.2667 0.2667 0.0000  plane waves:   12455
 k-point 66 :  -0.2000 0.2667 0.0000  plane waves:   12462
 k-point 67 :  -0.1333 0.2667 0.0000  plane waves:   12459
 k-point 68 :  -0.0667 0.2667 0.0000  plane waves:   12453
 k-point 69 :   0.0000 0.3333 0.0000  plane waves:   12441
 k-point 70 :   0.0667 0.3333 0.0000  plane waves:   12452
 k-point 71 :   0.1333 0.3333 0.0000  plane waves:   12451
 k-point 72 :   0.2000 0.3333 0.0000  plane waves:   12461
 k-point 73 :   0.2667 0.3333 0.0000  plane waves:   12458
 k-point 74 :   0.3333 0.3333 0.0000  plane waves:   12449
 k-point 75 :   0.4000 0.3333 0.0000  plane waves:   12460
 k-point 76 :   0.4667 0.3333 0.0000  plane waves:   12450
 k-point 77 :  -0.4667 0.3333 0.0000  plane waves:   12450
 k-point 78 :  -0.4000 0.3333 0.0000  plane waves:   12460
 k-point 79 :  -0.3333 0.3333 0.0000  plane waves:   12449
 k-point 80 :  -0.2667 0.3333 0.0000  plane waves:   12458
 k-point 81 :  -0.2000 0.3333 0.0000  plane waves:   12461
 k-point 82 :  -0.1333 0.3333 0.0000  plane waves:   12451
 k-point 83 :  -0.0667 0.3333 0.0000  plane waves:   12452
 k-point 84 :   0.0000 0.4000 0.0000  plane waves:   12423
 k-point 85 :   0.0667 0.4000 0.0000  plane waves:   12441
 k-point 86 :   0.1333 0.4000 0.0000  plane waves:   12456
 k-point 87 :   0.2000 0.4000 0.0000  plane waves:   12454
 k-point 88 :   0.2667 0.4000 0.0000  plane waves:   12451
 k-point 89 :   0.3333 0.4000 0.0000  plane waves:   12433
 k-point 90 :   0.4000 0.4000 0.0000  plane waves:   12436
 k-point 91 :   0.4667 0.4000 0.0000  plane waves:   12430
 k-point 92 :  -0.4667 0.4000 0.0000  plane waves:   12430
 k-point 93 :  -0.4000 0.4000 0.0000  plane waves:   12436
 k-point 94 :  -0.3333 0.4000 0.0000  plane waves:   12433
 k-point 95 :  -0.2667 0.4000 0.0000  plane waves:   12451
 k-point 96 :  -0.2000 0.4000 0.0000  plane waves:   12454
 k-point 97 :  -0.1333 0.4000 0.0000  plane waves:   12456
 k-point 98 :  -0.0667 0.4000 0.0000  plane waves:   12441
 k-point 99 :   0.0000 0.4667 0.0000  plane waves:   12417
 k-point ** :   0.0667 0.4667 0.0000  plane waves:   12423
 k-point ** :   0.1333 0.4667 0.0000  plane waves:   12437
 k-point ** :   0.2000 0.4667 0.0000  plane waves:   12420
 k-point ** :   0.2667 0.4667 0.0000  plane waves:   12424
 k-point ** :   0.3333 0.4667 0.0000  plane waves:   12420
 k-point ** :   0.4000 0.4667 0.0000  plane waves:   12428
 k-point ** :   0.4667 0.4667 0.0000  plane waves:   12442
 k-point ** :  -0.4667 0.4667 0.0000  plane waves:   12442
 k-point ** :  -0.4000 0.4667 0.0000  plane waves:   12428
 k-point ** :  -0.3333 0.4667 0.0000  plane waves:   12420
 k-point ** :  -0.2667 0.4667 0.0000  plane waves:   12424
 k-point ** :  -0.2000 0.4667 0.0000  plane waves:   12420
 k-point ** :  -0.1333 0.4667 0.0000  plane waves:   12437
 k-point ** :  -0.0667 0.4667 0.0000  plane waves:   12423

 maximum and minimum number of plane-waves per node :       540      494

 maximum number of plane-waves:     12526
 maximum index in each direction: 
   IXMAX=    9   IYMAX=    8   IZMAX=   39
   IXMIN=   -9   IYMIN=   -8   IZMIN=  -39


 parallel 3D FFT for wavefunctions:
    minimum data exchange during FFTs selected (reduces bandwidth)
 parallel 3D FFT for charge:
    minimum data exchange during FFTs selected (reduces bandwidth)


 total amount of memory used by VASP MPI-rank0    62730. kBytes
=======================================================================

   base      :      30000. kBytes
   nonl-proj :      12231. kBytes
   fftplans  :       2677. kBytes
   grid      :       4349. kBytes
   one-center:          8. kBytes
   wavefun   :      13465. kBytes
 
     INWAV:  cpu time    0.0000: real time    0.0000
 Broyden mixing: mesh for mixing (old mesh)
   NGX = 17   NGY = 17   NGZ = 79
  (NGX  = 72   NGY  = 72   NGZ  =320)
  gives a total of  22831 points

 initial charge density was supplied:
 charge density of overlapping atoms calculated
 number of electron      20.0000000 magnetization 
 keeping initial charge density in first step


--------------------------------------------------------------------------------------------------------


 Maximum index for augmentation-charges         2242 (set IRDMAX)


--------------------------------------------------------------------------------------------------------


 First call to EWALD:  gamma=   0.246
 Maximum number of real-space cells 4x 4x 1
 Maximum number of reciprocal cells 2x 2x 7

    FEWALD:  cpu time    0.0014: real time    0.0014


--------------------------------------- Iteration      1(   1)  ---------------------------------------


    POTLOK:  cpu time    0.0737: real time    0.1897
    SETDIJ:  cpu time    0.0057: real time    0.0074
     EDDAV:  cpu time    3.1946: real time    3.2101
       DOS:  cpu time    0.0055: real time    0.0055
    --------------------------------------------
      LOOP:  cpu time    3.2794: real time    3.4127

 eigenvalue-minimisations  :  3164
 total energy-change (2. order) : 0.1445226E+03  (-0.6299437E+03)
 number of electron      20.0000000 magnetization 
 augmentation part       20.0000000 magnetization 

 Free energy of the ion-electron system (eV)
  ---------------------------------------------------
  alpha Z        PSCENC =         9.57603783
  Ewald energy   TEWEN  =      1164.89523098
  -Hartree energ DENC   =     -1766.92927086
  -exchange      EXHF   =         0.00000000
  -V(xc)+E(xc)   XCENC  =      -238.53546802
  PAW double counting   =       799.43158084     -524.17639913
  entropy T*S    EENTRO =        -0.01131659
  eigenvalues    EBANDS =        -2.15568929
  atomic energy  EATOM  =       702.42789710
  Solvation  Ediel_sol  =         0.00000000
  ---------------------------------------------------
  free energy    TOTEN  =       144.52260286 eV

  energy without entropy =      144.53391945  energy(sigma->0) =      144.52826115


--------------------------------------------------------------------------------------------------------




--------------------------------------- Iteration      1(   2)  ---------------------------------------


     EDDAV:  cpu time    4.6432: real time    4.6565
       DOS:  cpu time    0.0054: real time    0.0055
    --------------------------------------------
      LOOP:  cpu time    4.6486: real time    4.6619

 eigenvalue-minimisations  :  5208
 total energy-change (2. order) :-0.1397948E+03  (-0.1357547E+03)
 number of electron      20.0000000 magnetization 
 augmentation part       20.0000000 magnetization 

 Free energy of the ion-electron system (eV)
  ---------------------------------------------------
  alpha Z        PSCENC =         9.57603783
  Ewald energy   TEWEN  =      1164.89523098
  -Hartree energ DENC   =     -1766.92927086
  -exchange      EXHF   =         0.00000000
  -V(xc)+E(xc)   XCENC  =      -238.53546802
  PAW double counting   =       799.43158084     -524.17639913
  entropy T*S    EENTRO =        -0.00144897
  eigenvalues    EBANDS =      -141.96031208
  atomic energy  EATOM  =       702.42789710
  Solvation  Ediel_sol  =         0.00000000
  ---------------------------------------------------
  free energy    TOTEN  =         4.72784769 eV

  energy without entropy =        4.72929667  energy(sigma->0) =        4.72857218


--------------------------------------------------------------------------------------------------------




--------------------------------------- Iteration      1(   3)  ---------------------------------------


     EDDAV:  cpu time    3.7827: real time    3.7985
       DOS:  cpu time    0.0040: real time    0.0040
    --------------------------------------------
      LOOP:  cpu time    3.7866: real time    3.8025

 eigenvalue-minimisations  :  4010
 total energy-change (2. order) :-0.2069219E+02  (-0.2051942E+02)
 number of electron      20.0000000 magnetization 
 augmentation part       20.0000000 magnetization 

 Free energy of the ion-electron system (eV)
  ---------------------------------------------------
  alpha Z        PSCENC =         9.57603783
  Ewald energy   TEWEN  =      1164.89523098
  -Hartree energ DENC   =     -1766.92927086
  -exchange      EXHF   =         0.00000000
  -V(xc)+E(xc)   XCENC  =      -238.53546802
  PAW double counting   =       799.43158084     -524.17639913
  entropy T*S    EENTRO =        -0.00000000
  eigenvalues    EBANDS =      -162.65395032
  atomic energy  EATOM  =       702.42789710
  Solvation  Ediel_sol  =         0.00000000
  ---------------------------------------------------
  free energy    TOTEN  =       -15.96434158 eV

  energy without entropy =      -15.96434158  energy(sigma->0) =      -15.96434158


--------------------------------------------------------------------------------------------------------




--------------------------------------- Iteration      1(   4)  ---------------------------------------


     EDDAV:  cpu time    4.1894: real time    4.2016
       DOS:  cpu time    0.0040: real time    0.0040
    --------------------------------------------
      LOOP:  cpu time    4.1934: real time    4.2056

 eigenvalue-minimisations  :  4550
 total energy-change (2. order) :-0.8054404E+00  (-0.8034664E+00)
 number of electron      20.0000000 magnetization 
 augmentation part       20.0000000 magnetization 

 Free energy of the ion-electron system (eV)
  ---------------------------------------------------
  alpha Z        PSCENC =         9.57603783
  Ewald energy   TEWEN  =      1164.89523098
  -Hartree energ DENC   =     -1766.92927086
  -exchange      EXHF   =         0.00000000
  -V(xc)+E(xc)   XCENC  =      -238.53546802
  PAW double counting   =       799.43158084     -524.17639913
  entropy T*S    EENTRO =        -0.00000000
  eigenvalues    EBANDS =      -163.45939070
  atomic energy  EATOM  =       702.42789710
  Solvation  Ediel_sol  =         0.00000000
  ---------------------------------------------------
  free energy    TOTEN  =       -16.76978196 eV

  energy without entropy =      -16.76978196  energy(sigma->0) =      -16.76978196


--------------------------------------------------------------------------------------------------------




--------------------------------------- Iteration      1(   5)  ---------------------------------------


     EDDAV:  cpu time    3.8620: real time    3.8770
       DOS:  cpu time    0.0039: real time    0.0039
    CHARGE:  cpu time    0.2569: real time    0.2585
    MIXING:  cpu time    0.0029: real time    0.0034
    --------------------------------------------
      LOOP:  cpu time    4.1257: real time    4.1428

 eigenvalue-minimisations  :  4186
 total energy-change (2. order) :-0.1767816E-01  (-0.1766558E-01)
 number of electron      20.0000000 magnetization 
 augmentation part       -4.5250270 magnetization 

 Broyden mixing:
  rms(total) = 0.45494E+00    rms(broyden)= 0.45494E+00
  rms(prec ) = 0.49458E+00
  weight for this iteration     100.00

 Free energy of the ion-electron system (eV)
  ---------------------------------------------------
  alpha Z        PSCENC =         9.57603783
  Ewald energy   TEWEN  =      1164.89523098
  -Hartree energ DENC   =     -1766.92927086
  -exchange      EXHF   =         0.00000000
  -V(xc)+E(xc)   XCENC  =      -238.53546802
  PAW double counting   =       799.43158084     -524.17639913
  entropy T*S    EENTRO =        -0.00000000
  eigenvalues    EBANDS =      -163.47706886
  atomic energy  EATOM  =       702.42789710
  Solvation  Ediel_sol  =         0.00000000
  ---------------------------------------------------
  free energy    TOTEN  =       -16.78746012 eV

  energy without entropy =      -16.78746012  energy(sigma->0) =      -16.78746012


--------------------------------------------------------------------------------------------------------




--------------------------------------- Iteration      1(   6)  ---------------------------------------


    POTLOK:  cpu time    0.0497: real time    0.0501
    SETDIJ:  cpu time    0.0056: real time    0.0056
     EDDAV:  cpu time    3.6682: real time    3.6826
       DOS:  cpu time    0.0041: real time    0.0041
    CHARGE:  cpu time    0.2503: real time    0.2511
    MIXING:  cpu time    0.0026: real time    0.0028
    --------------------------------------------
      LOOP:  cpu time    3.9804: real time    3.9963

 eigenvalue-minimisations  :  3934
 total energy-change (2. order) : 0.4821436E+00  (-0.1217365E+00)
 number of electron      20.0000000 magnetization 
 augmentation part       -4.4928003 magnetization 

 Broyden mixing:
  rms(total) = 0.27973E+00    rms(broyden)= 0.27973E+00
  rms(prec ) = 0.28883E+00
  weight for this iteration     100.00

 eigenvalues of (default mixing * dielectric matrix)
  average eigenvalue GAMMA=   1.8271
  1.8271

 Free energy of the ion-electron system (eV)
  ---------------------------------------------------
  alpha Z        PSCENC =         9.57603783
  Ewald energy   TEWEN  =      1164.89523098
  -Hartree energ DENC   =     -1774.78864775
  -exchange      EXHF   =         0.00000000
  -V(xc)+E(xc)   XCENC  =      -238.05426496
  PAW double counting   =       926.06039728     -650.99148135
  entropy T*S    EENTRO =        -0.00000000
  eigenvalues    EBANDS =      -155.43048566
  atomic energy  EATOM  =       702.42789710
  Solvation  Ediel_sol  =         0.00000000
  ---------------------------------------------------
  free energy    TOTEN  =       -16.30531654 eV

  energy without entropy =      -16.30531654  energy(sigma->0) =      -16.30531654


--------------------------------------------------------------------------------------------------------




--------------------------------------- Iteration      1(   7)  ---------------------------------------


    POTLOK:  cpu time    0.0487: real time    0.0488
    SETDIJ:  cpu time    0.0045: real time    0.0045
     EDDAV:  cpu time    3.7701: real time    3.7807
       DOS:  cpu time    0.0040: real time    0.0040
    CHARGE:  cpu time    0.2683: real time    0.2689
    MIXING:  cpu time    0.0017: real time    0.0019
    --------------------------------------------
      LOOP:  cpu time    4.0973: real time    4.1089

 eigenvalue-minimisations  :  4068
 total energy-change (2. order) : 0.2855941E-01  (-0.3158402E-01)
 number of electron      20.0000000 magnetization 
 augmentation part       -4.4837101 magnetization 

 Broyden mixing:
  rms(total) = 0.10394E+00    rms(broyden)= 0.10394E+00
  rms(prec ) = 0.10939E+00
  weight for this iteration     100.00

 eigenvalues of (default mixing * dielectric matrix)
  average eigenvalue GAMMA=   1.7371
  1.3746  2.0995

 Free energy of the ion-electron system (eV)
  ---------------------------------------------------
  alpha Z        PSCENC =         9.57603783
  Ewald energy   TEWEN  =      1164.89523098
  -Hartree energ DENC   =     -1779.94190690
  -exchange      EXHF   =         0.00000000
  -V(xc)+E(xc)   XCENC  =      -237.72335635
  PAW double counting   =      1071.66924112     -796.74609140
  entropy T*S    EENTRO =        -0.00000000
  eigenvalues    EBANDS =      -150.43380950
  atomic energy  EATOM  =       702.42789710
  Solvation  Ediel_sol  =         0.00000000
  ---------------------------------------------------
  free energy    TOTEN  =       -16.27675713 eV

  energy without entropy =      -16.27675713  energy(sigma->0) =      -16.27675713


--------------------------------------------------------------------------------------------------------




--------------------------------------- Iteration      1(   8)  ---------------------------------------


    POTLOK:  cpu time    0.0530: real time    0.0532
    SETDIJ:  cpu time    0.0045: real time    0.0045
     EDDAV:  cpu time    4.0173: real time    4.0293
       DOS:  cpu time    0.0040: real time    0.0040
    CHARGE:  cpu time    0.2457: real time    0.2463
    MIXING:  cpu time    0.0017: real time    0.0017
    --------------------------------------------
      LOOP:  cpu time    4.3262: real time    4.3390

 eigenvalue-minimisations  :  4442
 total energy-change (2. order) : 0.9930432E-02  (-0.3890380E-02)
 number of electron      20.0000000 magnetization 
 augmentation part       -4.4878991 magnetization 

 Broyden mixing:
  rms(total) = 0.20361E-01    rms(broyden)= 0.20361E-01
  rms(prec ) = 0.27799E-01
  weight for this iteration     100.00

 eigenvalues of (default mixing * dielectric matrix)
  average eigenvalue GAMMA=   1.7170
  2.5390  1.3060  1.3060

 Free energy of the ion-electron system (eV)
  ---------------------------------------------------
  alpha Z        PSCENC =         9.57603783
  Ewald energy   TEWEN  =      1164.89523098
  -Hartree energ DENC   =     -1781.63979291
  -exchange      EXHF   =         0.00000000
  -V(xc)+E(xc)   XCENC  =      -237.64579172
  PAW double counting   =      1137.39991644     -862.51634400
  entropy T*S    EENTRO =        -0.00000000
  eigenvalues    EBANDS =      -148.76398042
  atomic energy  EATOM  =       702.42789710
  Solvation  Ediel_sol  =         0.00000000
  ---------------------------------------------------
  free energy    TOTEN  =       -16.26682670 eV

  energy without entropy =      -16.26682670  energy(sigma->0) =      -16.26682670


--------------------------------------------------------------------------------------------------------




--------------------------------------- Iteration      1(   9)  ---------------------------------------


    POTLOK:  cpu time    0.0529: real time    0.0530
    SETDIJ:  cpu time    0.0044: real time    0.0044
     EDDAV:  cpu time    3.9041: real time    3.9156
       DOS:  cpu time    0.0042: real time    0.0042
    CHARGE:  cpu time    0.2469: real time    0.2480
    MIXING:  cpu time    0.0018: real time    0.0018
    --------------------------------------------
      LOOP:  cpu time    4.2142: real time    4.2270

 eigenvalue-minimisations  :  4328
 total energy-change (2. order) : 0.3769168E-02  (-0.6577592E-03)
 number of electron      20.0000000 magnetization 
 augmentation part       -4.4859677 magnetization 

 Broyden mixing:
  rms(total) = 0.10083E-01    rms(broyden)= 0.10083E-01
  rms(prec ) = 0.15645E-01
  weight for this iteration     100.00

 eigenvalues of (default mixing * dielectric matrix)
  average eigenvalue GAMMA=   1.6912
  2.1900  2.1900  1.1923  1.1923

 Free energy of the ion-electron system (eV)
  ---------------------------------------------------
  alpha Z        PSCENC =         9.57603783
  Ewald energy   TEWEN  =      1164.89523098
  -Hartree energ DENC   =     -1783.64687120
  -exchange      EXHF   =         0.00000000
  -V(xc)+E(xc)   XCENC  =      -237.57210120
  PAW double counting   =      1155.85684313     -880.98559565
  entropy T*S    EENTRO =        -0.00000000
  eigenvalues    EBANDS =      -146.81449852
  atomic energy  EATOM  =       702.42789710
  Solvation  Ediel_sol  =         0.00000000
  ---------------------------------------------------
  free energy    TOTEN  =       -16.26305753 eV

  energy without entropy =      -16.26305753  energy(sigma->0) =      -16.26305753


--------------------------------------------------------------------------------------------------------




--------------------------------------- Iteration      1(  10)  ---------------------------------------


    POTLOK:  cpu time    0.0529: real time    0.0532
    SETDIJ:  cpu time    0.0044: real time    0.0045
     EDDAV:  cpu time    3.9939: real time    4.0062
       DOS:  cpu time    0.0041: real time    0.0041
    CHARGE:  cpu time    0.2456: real time    0.2462
    MIXING:  cpu time    0.0018: real time    0.0019
    --------------------------------------------
      LOOP:  cpu time    4.3028: real time    4.3160

 eigenvalue-minimisations  :  4370
 total energy-change (2. order) : 0.1211167E-02  (-0.1119519E-03)
 number of electron      20.0000000 magnetization 
 augmentation part       -4.4847318 magnetization 

 Broyden mixing:
  rms(total) = 0.51272E-02    rms(broyden)= 0.51272E-02
  rms(prec ) = 0.95016E-02
  weight for this iteration     100.00

 eigenvalues of (default mixing * dielectric matrix)
  average eigenvalue GAMMA=   1.8770
  3.3805  2.5985  1.2481  1.2481  0.9096

 Free energy of the ion-electron system (eV)
  ---------------------------------------------------
  alpha Z        PSCENC =         9.57603783
  Ewald energy   TEWEN  =      1164.89523098
  -Hartree energ DENC   =     -1784.87181985
  -exchange      EXHF   =         0.00000000
  -V(xc)+E(xc)   XCENC  =      -237.56182358
  PAW double counting   =      1145.38068538     -870.49922759
  entropy T*S    EENTRO =        -0.00000000
  eigenvalues    EBANDS =      -145.60882662
  atomic energy  EATOM  =       702.42789710
  Solvation  Ediel_sol  =         0.00000000
  ---------------------------------------------------
  free energy    TOTEN  =       -16.26184637 eV

  energy without entropy =      -16.26184637  energy(sigma->0) =      -16.26184637


--------------------------------------------------------------------------------------------------------




--------------------------------------- Iteration      1(  11)  ---------------------------------------


    POTLOK:  cpu time    0.0525: real time    0.0526
    SETDIJ:  cpu time    0.0069: real time    0.0069
     EDDAV:  cpu time    3.9448: real time    3.9599
       DOS:  cpu time    0.0041: real time    0.0041
    CHARGE:  cpu time    0.2504: real time    0.2510
    MIXING:  cpu time    0.0019: real time    0.0019
    --------------------------------------------
      LOOP:  cpu time    4.2604: real time    4.2763

 eigenvalue-minimisations  :  4304
 total energy-change (2. order) : 0.7672822E-03  (-0.1363210E-03)
 number of electron      20.0000000 magnetization 
 augmentation part       -4.4832793 magnetization 

 Broyden mixing:
  rms(total) = 0.33501E-02    rms(broyden)= 0.33501E-02
  rms(prec ) = 0.50262E-02
  weight for this iteration     100.00

 eigenvalues of (default mixing * dielectric matrix)
  average eigenvalue GAMMA=   1.8432
  3.3944  2.1934  2.1934  1.2009  1.2009  0.8764

 Free energy of the ion-electron system (eV)
  ---------------------------------------------------
  alpha Z        PSCENC =         9.57603783
  Ewald energy   TEWEN  =      1164.89523098
  -Hartree energ DENC   =     -1786.54605600
  -exchange      EXHF   =         0.00000000
  -V(xc)+E(xc)   XCENC  =      -237.52950391
  PAW double counting   =      1146.55172606     -871.66895543
  entropy T*S    EENTRO =        -0.00000000
  eigenvalues    EBANDS =      -143.96745570
  atomic energy  EATOM  =       702.42789710
  Solvation  Ediel_sol  =         0.00000000
  ---------------------------------------------------
  free energy    TOTEN  =       -16.26107909 eV

  energy without entropy =      -16.26107909  energy(sigma->0) =      -16.26107909


--------------------------------------------------------------------------------------------------------




--------------------------------------- Iteration      1(  12)  ---------------------------------------


    POTLOK:  cpu time    0.0533: real time    0.0535
    SETDIJ:  cpu time    0.0069: real time    0.0069
     EDDAV:  cpu time    3.6122: real time    3.6224
       DOS:  cpu time    0.0042: real time    0.0042
    CHARGE:  cpu time    0.2502: real time    0.2511
    MIXING:  cpu time    0.0020: real time    0.0020
    --------------------------------------------
      LOOP:  cpu time    3.9288: real time    3.9401

 eigenvalue-minimisations  :  3608
 total energy-change (2. order) :-0.8272302E-03  (-0.3058076E-04)
 number of electron      20.0000000 magnetization 
 augmentation part       -4.4826622 magnetization 

 Broyden mixing:
  rms(total) = 0.19567E-02    rms(broyden)= 0.19567E-02
  rms(prec ) = 0.29179E-02
  weight for this iteration     100.00

 eigenvalues of (default mixing * dielectric matrix)
  average eigenvalue GAMMA=   2.0709
  4.6007  3.0938  2.5014  1.2152  1.2152  1.0282  0.8419

 Free energy of the ion-electron system (eV)
  ---------------------------------------------------
  alpha Z        PSCENC =         9.57603783
  Ewald energy   TEWEN  =      1164.89523098
  -Hartree energ DENC   =     -1787.16203807
  -exchange      EXHF   =         0.00000000
  -V(xc)+E(xc)   XCENC  =      -237.51999697
  PAW double counting   =      1148.63679957     -873.75707754
  entropy T*S    EENTRO =        -0.00000000
  eigenvalues    EBANDS =      -143.35875921
  atomic energy  EATOM  =       702.42789710
  Solvation  Ediel_sol  =         0.00000000
  ---------------------------------------------------
  free energy    TOTEN  =       -16.26190632 eV

  energy without entropy =      -16.26190632  energy(sigma->0) =      -16.26190632


--------------------------------------------------------------------------------------------------------




--------------------------------------- Iteration      1(  13)  ---------------------------------------


    POTLOK:  cpu time    0.0530: real time    0.0534
    SETDIJ:  cpu time    0.0045: real time    0.0045
     EDDAV:  cpu time    3.5741: real time    3.5894
       DOS:  cpu time    0.0040: real time    0.0040
    CHARGE:  cpu time    0.2764: real time    0.2773
    MIXING:  cpu time    0.0020: real time    0.0020
    --------------------------------------------
      LOOP:  cpu time    3.9140: real time    3.9305

 eigenvalue-minimisations  :  3728
 total energy-change (2. order) :-0.4339627E-03  (-0.8395385E-05)
 number of electron      20.0000000 magnetization 
 augmentation part       -4.4824586 magnetization 

 Broyden mixing:
  rms(total) = 0.11889E-02    rms(broyden)= 0.11889E-02
  rms(prec ) = 0.15546E-02
  weight for this iteration     100.00

 eigenvalues of (default mixing * dielectric matrix)
  average eigenvalue GAMMA=   2.2301
  5.5567  3.3287  2.4958  2.1563  1.1667  1.1667  1.0607  0.9094

 Free energy of the ion-electron system (eV)
  ---------------------------------------------------
  alpha Z        PSCENC =         9.57603783
  Ewald energy   TEWEN  =      1164.89523098
  -Hartree energ DENC   =     -1787.58000012
  -exchange      EXHF   =         0.00000000
  -V(xc)+E(xc)   XCENC  =      -237.51888139
  PAW double counting   =      1147.28816728     -872.40708581
  entropy T*S    EENTRO =        -0.00000000
  eigenvalues    EBANDS =      -142.94370615
  atomic energy  EATOM  =       702.42789710
  Solvation  Ediel_sol  =         0.00000000
  ---------------------------------------------------
  free energy    TOTEN  =       -16.26234028 eV

  energy without entropy =      -16.26234028  energy(sigma->0) =      -16.26234028


--------------------------------------------------------------------------------------------------------




--------------------------------------- Iteration      1(  14)  ---------------------------------------


    POTLOK:  cpu time    0.0508: real time    0.0509
    SETDIJ:  cpu time    0.0045: real time    0.0045
     EDDAV:  cpu time    3.6825: real time    3.6924
       DOS:  cpu time    0.0040: real time    0.0040
    CHARGE:  cpu time    0.2531: real time    0.2538
    MIXING:  cpu time    0.0026: real time    0.0025
    --------------------------------------------
      LOOP:  cpu time    3.9974: real time    4.0082

 eigenvalue-minimisations  :  3950
 total energy-change (2. order) :-0.2646406E-03  (-0.4300338E-05)
 number of electron      20.0000000 magnetization 
 augmentation part       -4.4824352 magnetization 

 Broyden mixing:
  rms(total) = 0.41492E-03    rms(broyden)= 0.41492E-03
  rms(prec ) = 0.62986E-03
  weight for this iteration     100.00

 eigenvalues of (default mixing * dielectric matrix)
  average eigenvalue GAMMA=   2.2418
  6.7322  3.0754  2.5288  2.5288  1.1912  1.1912  1.0657  0.9313  0.9313

 Free energy of the ion-electron system (eV)
  ---------------------------------------------------
  alpha Z        PSCENC =         9.57603783
  Ewald energy   TEWEN  =      1164.89523098
  -Hartree energ DENC   =     -1787.78931735
  -exchange      EXHF   =         0.00000000
  -V(xc)+E(xc)   XCENC  =      -237.51874368
  PAW double counting   =      1147.58572741     -872.70407491
  entropy T*S    EENTRO =        -0.00000000
  eigenvalues    EBANDS =      -142.73536230
  atomic energy  EATOM  =       702.42789710
  Solvation  Ediel_sol  =         0.00000000
  ---------------------------------------------------
  free energy    TOTEN  =       -16.26260492 eV

  energy without entropy =      -16.26260492  energy(sigma->0) =      -16.26260492


--------------------------------------------------------------------------------------------------------




--------------------------------------- Iteration      1(  15)  ---------------------------------------


    POTLOK:  cpu time    0.0533: real time    0.0534
    SETDIJ:  cpu time    0.0044: real time    0.0044
     EDDAV:  cpu time    3.5445: real time    3.5551
       DOS:  cpu time    0.0040: real time    0.0040
    CHARGE:  cpu time    0.2404: real time    0.2410
    MIXING:  cpu time    0.0021: real time    0.0021
    --------------------------------------------
      LOOP:  cpu time    3.8487: real time    3.8601

 eigenvalue-minimisations  :  3736
 total energy-change (2. order) :-0.5408533E-04  (-0.2003435E-06)
 number of electron      20.0000000 magnetization 
 augmentation part       -4.4824508 magnetization 

 Broyden mixing:
  rms(total) = 0.34215E-03    rms(broyden)= 0.34215E-03
  rms(prec ) = 0.51365E-03
  weight for this iteration     100.00

 eigenvalues of (default mixing * dielectric matrix)
  average eigenvalue GAMMA=   2.3587
  6.5453  4.2782  2.7077  2.7077  1.9794  1.1466  1.1466  1.2062  0.9346  0.9346

 Free energy of the ion-electron system (eV)
  ---------------------------------------------------
  alpha Z        PSCENC =         9.57603783
  Ewald energy   TEWEN  =      1164.89523098
  -Hartree energ DENC   =     -1787.80417465
  -exchange      EXHF   =         0.00000000
  -V(xc)+E(xc)   XCENC  =      -237.51905708
  PAW double counting   =      1147.41322663     -872.53145200
  entropy T*S    EENTRO =        -0.00000000
  eigenvalues    EBANDS =      -142.72036781
  atomic energy  EATOM  =       702.42789710
  Solvation  Ediel_sol  =         0.00000000
  ---------------------------------------------------
  free energy    TOTEN  =       -16.26265900 eV

  energy without entropy =      -16.26265900  energy(sigma->0) =      -16.26265900


--------------------------------------------------------------------------------------------------------




--------------------------------------- Iteration      1(  16)  ---------------------------------------


    POTLOK:  cpu time    0.0586: real time    0.0588
    SETDIJ:  cpu time    0.0045: real time    0.0045
     EDDAV:  cpu time    3.3616: real time    3.3718
       DOS:  cpu time    0.0040: real time    0.0040
    CHARGE:  cpu time    0.2486: real time    0.2493
    MIXING:  cpu time    0.0047: real time    0.0047
    --------------------------------------------
      LOOP:  cpu time    3.6820: real time    3.6931

 eigenvalue-minimisations  :  3492
 total energy-change (2. order) :-0.4827026E-04  (-0.8495974E-06)
 number of electron      20.0000000 magnetization 
 augmentation part       -4.4824635 magnetization 

 Broyden mixing:
  rms(total) = 0.13132E-03    rms(broyden)= 0.13132E-03
  rms(prec ) = 0.22968E-03
  weight for this iteration     100.00

 eigenvalues of (default mixing * dielectric matrix)
  average eigenvalue GAMMA=   2.2819
  6.7901  4.5127  2.6476  2.6476  2.2653  1.1620  1.1620  1.1886  0.9321  0.9321
  0.8610

 Free energy of the ion-electron system (eV)
  ---------------------------------------------------
  alpha Z        PSCENC =         9.57603783
  Ewald energy   TEWEN  =      1164.89523098
  -Hartree energ DENC   =     -1787.85686822
  -exchange      EXHF   =         0.00000000
  -V(xc)+E(xc)   XCENC  =      -237.51918136
  PAW double counting   =      1147.23074869     -872.34895798
  entropy T*S    EENTRO =        -0.00000000
  eigenvalues    EBANDS =      -142.66761431
  atomic energy  EATOM  =       702.42789710
  Solvation  Ediel_sol  =         0.00000000
  ---------------------------------------------------
  free energy    TOTEN  =       -16.26270727 eV

  energy without entropy =      -16.26270727  energy(sigma->0) =      -16.26270727


--------------------------------------------------------------------------------------------------------




--------------------------------------- Iteration      1(  17)  ---------------------------------------


    POTLOK:  cpu time    0.0528: real time    0.0529
    SETDIJ:  cpu time    0.0063: real time    0.0063
     EDDAV:  cpu time    3.2482: real time    3.2596
       DOS:  cpu time    0.0040: real time    0.0040
    CHARGE:  cpu time    0.2556: real time    0.2567
    MIXING:  cpu time    0.0023: real time    0.0023
    --------------------------------------------
[...]
  band No.  band energies     occupation 
      1     -14.5456      2.00000
      2     -14.2875      2.00000
      3      -8.8140      2.00000
      4      -8.5899      2.00000
      5      -6.0879      2.00000
      6      -5.1170      2.00000
      7      -4.8274      2.00000
      8      -4.0753      2.00000
      9      -3.8657      2.00000
     10      -3.0781      2.00000
     11       0.1461      0.00000
     12       1.0966      0.00000
     13       1.1975      0.00000
     14       1.6031      0.00000

 k-point    96 :      -0.2000    0.4000    0.0000
  band No.  band energies     occupation 
      1     -14.6161      2.00000
      2     -14.3106      2.00000
      3      -8.9797      2.00000
      4      -8.6928      2.00000
      5      -5.6480      2.00000
      6      -4.8215      2.00000
      7      -4.5617      2.00000
      8      -3.9383      2.00000
      9      -3.4964      2.00000
     10      -2.6956      2.00000
     11      -0.3367      0.00000
     12       0.5783      0.00000
     13       0.7199      0.00000
     14       1.2473      0.00000

 k-point    97 :      -0.1333    0.4000    0.0000
  band No.  band energies     occupation 
      1     -14.6724      2.00000
      2     -14.3337      2.00000
      3      -9.1080      2.00000
      4      -8.7775      2.00000
      5      -5.1265      2.00000
      6      -4.7569      2.00000
      7      -4.1499      2.00000
      8      -3.8944      2.00000
      9      -2.9240      2.00000
     10      -2.4576      2.00000
     11      -0.6289      0.00000
     12      -0.1615      0.00000
     13       0.4965      0.00000
     14       0.8122      0.00000

 k-point    98 :      -0.0667    0.4000    0.0000
  band No.  band energies     occupation 
      1     -14.7087      2.00000
      2     -14.3503      2.00000
      3      -9.1882      2.00000
      4      -8.8326      2.00000
      5      -4.7620      2.00000
      6      -4.5853      2.00000
      7      -3.9248      2.00000
      8      -3.7373      2.00000
      9      -2.6257      2.00000
     10      -2.3404      2.00000
     11      -0.7651      0.00000
     12      -0.3800      0.00000
     13       0.2389      0.00000
     14       0.3771      0.00000

 k-point    99 :       0.0000    0.4667    0.0000
  band No.  band energies     occupation 
      1     -14.5739      2.00000
      2     -14.4483      2.00000
      3      -9.2011      2.00000
      4      -9.0760      2.00000
      5      -4.5183      2.00000
      6      -4.2951      2.00000
      7      -3.8517      2.00000
      8      -3.6532      2.00000
      9      -2.5402      2.00000
     10      -2.1913      2.00000
     11      -0.9051      0.00000
     12      -0.4575      0.00000
     13      -0.0788      0.00000
     14       0.1237      0.00000

 k-point   100 :       0.0667    0.4667    0.0000
  band No.  band energies     occupation 
      1     -14.5636      2.00000
      2     -14.4402      2.00000
      3      -9.1731      2.00000
      4      -9.0507      2.00000
      5      -4.5325      2.00000
      6      -4.4155      2.00000
      7      -3.9975      2.00000
      8      -3.8654      2.00000
      9      -2.4539      2.00000
     10      -2.3538      2.00000
     11      -0.8109      0.00000
     12      -0.7011      0.00000
     13       0.2923      0.00000
     14       0.5971      0.00000

 k-point   101 :       0.1333    0.4667    0.0000
  band No.  band energies     occupation 
      1     -14.5340      2.00000
      2     -14.4175      2.00000
      3      -9.0899      2.00000
      4      -8.9763      2.00000
      5      -4.8415      2.00000
      6      -4.6470      2.00000
      7      -4.2362      2.00000
      8      -4.1049      2.00000
      9      -2.8351      2.00000
     10      -2.6206      2.00000
     11      -0.5528      0.00000
     12      -0.3142      0.00000
     13       0.7995      0.00000
     14       0.9008      0.00000

 k-point   102 :       0.2000    0.4667    0.0000
  band No.  band energies     occupation 
      1     -14.4888      2.00000
      2     -14.3839      2.00000
      3      -8.9554      2.00000
      4      -8.8570      2.00000
      5      -5.3623      2.00000
      6      -5.0318      2.00000
      7      -4.4218      2.00000
      8      -4.1805      2.00000
      9      -3.3582      2.00000
     10      -3.0541      2.00000
     11      -0.0129      0.00000
     12       0.3496      0.00000
     13       1.0257      0.00000
     14       1.2505      0.00000

 k-point   103 :       0.2667    0.4667    0.0000
  band No.  band energies     occupation 
      1     -14.4342      2.00000
      2     -14.3456      2.00000
      3      -8.7775      2.00000
      4      -8.7015      2.00000
      5      -5.8423      2.00000
      6      -5.4944      2.00000
      7      -4.6250      2.00000
      8      -4.3554      2.00000
      9      -3.6987      2.00000
     10      -3.4231      2.00000
     11       0.5094      0.00000
     12       0.8707      0.00000
     13       1.4383      0.00000
     14       1.6793      0.00000

 k-point   104 :       0.3333    0.4667    0.0000
  band No.  band energies     occupation 
      1     -14.3779      2.00000
      2     -14.3104      2.00000
      3      -8.5729      2.00000
      4      -8.5256      2.00000
      5      -6.2349      2.00000
      6      -5.9154      2.00000
      7      -4.9359      2.00000
      8      -4.6688      2.00000
      9      -3.8014      2.00000
     10      -3.6017      2.00000
     11       0.8582      0.00000
     12       1.1340      0.00000
     13       2.0142      0.00000
     14       2.2775      0.00000

 k-point   105 :       0.4000    0.4667    0.0000
  band No.  band energies     occupation 
      1     -14.3287      2.00000
      2     -14.2862      2.00000
      3      -8.3757      2.00000
      4      -8.3574      2.00000
      5      -6.5058      2.00000
      6      -6.2685      2.00000
      7      -5.1998      2.00000
      8      -5.0001      2.00000
      9      -3.7920      2.00000
     10      -3.6708      2.00000
     11       1.0961      0.00000
     12       1.2681      0.00000
     13       2.5228      0.00000
     14       2.7473      0.00000

 k-point   106 :       0.4667    0.4667    0.0000
  band No.  band energies     occupation 
      1     -14.2943      2.00000
      2     -14.2798      2.00000
      3      -8.2468      2.00000
      4      -8.2447      2.00000
      5      -6.6118      2.00000
      6      -6.5212      2.00000
      7      -5.3086      2.00000
      8      -5.2341      2.00000
      9      -3.7528      2.00000
     10      -3.7119      2.00000
     11       1.2514      0.00000
     12       1.3099      0.00000
     13       2.7170      0.00000
     14       2.8058      0.00000

 k-point   107 :      -0.4667    0.4667    0.0000
  band No.  band energies     occupation 
      1     -14.2943      2.00000
      2     -14.2798      2.00000
      3      -8.2468      2.00000
      4      -8.2447      2.00000
      5      -6.6118      2.00000
      6      -6.5212      2.00000
      7      -5.3086      2.00000
      8      -5.2341      2.00000
      9      -3.7528      2.00000
     10      -3.7119      2.00000
     11       1.2514      0.00000
     12       1.3099      0.00000
     13       2.7170      0.00000
     14       2.8058      0.00000

 k-point   108 :      -0.4000    0.4667    0.0000
  band No.  band energies     occupation 
      1     -14.3287      2.00000
      2     -14.2862      2.00000
      3      -8.3757      2.00000
      4      -8.3574      2.00000
      5      -6.5058      2.00000
      6      -6.2685      2.00000
      7      -5.1998      2.00000
      8      -5.0001      2.00000
      9      -3.7920      2.00000
     10      -3.6708      2.00000
     11       1.0961      0.00000
     12       1.2681      0.00000
     13       2.5228      0.00000
     14       2.7473      0.00000

 k-point   109 :      -0.3333    0.4667    0.0000
  band No.  band energies     occupation 
      1     -14.3779      2.00000
      2     -14.3104      2.00000
      3      -8.5729      2.00000
      4      -8.5256      2.00000
      5      -6.2349      2.00000
      6      -5.9154      2.00000
      7      -4.9359      2.00000
      8      -4.6688      2.00000
      9      -3.8014      2.00000
     10      -3.6017      2.00000
     11       0.8582      0.00000
     12       1.1340      0.00000
     13       2.0142      0.00000
     14       2.2775      0.00000

 k-point   110 :      -0.2667    0.4667    0.0000
  band No.  band energies     occupation 
      1     -14.4342      2.00000
      2     -14.3456      2.00000
      3      -8.7775      2.00000
      4      -8.7015      2.00000
      5      -5.8423      2.00000
      6      -5.4944      2.00000
      7      -4.6250      2.00000
      8      -4.3554      2.00000
      9      -3.6987      2.00000
     10      -3.4231      2.00000
     11       0.5094      0.00000
     12       0.8707      0.00000
     13       1.4383      0.00000
     14       1.6793      0.00000

 k-point   111 :      -0.2000    0.4667    0.0000
  band No.  band energies     occupation 
      1     -14.4888      2.00000
      2     -14.3839      2.00000
      3      -8.9554      2.00000
      4      -8.8570      2.00000
      5      -5.3623      2.00000
      6      -5.0318      2.00000
      7      -4.4218      2.00000
      8      -4.1805      2.00000
      9      -3.3582      2.00000
     10      -3.0541      2.00000
     11      -0.0129      0.00000
     12       0.3496      0.00000
     13       1.0257      0.00000
     14       1.2505      0.00000

 k-point   112 :      -0.1333    0.4667    0.0000
  band No.  band energies     occupation 
      1     -14.5340      2.00000
      2     -14.4175      2.00000
      3      -9.0899      2.00000
      4      -8.9763      2.00000
      5      -4.8415      2.00000
      6      -4.6470      2.00000
      7      -4.2362      2.00000
      8      -4.1049      2.00000
      9      -2.8351      2.00000
     10      -2.6206      2.00000
     11      -0.5528      0.00000
     12      -0.3142      0.00000
     13       0.7995      0.00000
     14       0.9008      0.00000

 k-point   113 :      -0.0667    0.4667    0.0000
  band No.  band energies     occupation 
      1     -14.5636      2.00000
      2     -14.4402      2.00000
      3      -9.1731      2.00000
      4      -9.0507      2.00000
      5      -4.5325      2.00000
      6      -4.4155      2.00000
      7      -3.9975      2.00000
      8      -3.8654      2.00000
      9      -2.4539      2.00000
     10      -2.3538      2.00000
     11      -0.8109      0.00000
     12      -0.7011      0.00000
     13       0.2923      0.00000
     14       0.5971      0.00000


--------------------------------------------------------------------------------------------------------


 soft charge-density along one line, spin component           1
         0         1         2         3         4         5         6         7         8         9
 total charge-density along one line
 
 pseudopotential strength for first ion, spin component:           1
 30.072 -23.427  -0.000  -0.089   0.034  -0.000  -0.140   0.053
-23.427  28.113  -0.000   0.050  -0.019  -0.000   0.082  -0.031
 -0.000  -0.000   6.329   0.000  -0.000   9.792   0.000  -0.000
 -0.089   0.050   0.000   6.327   0.002   0.000   9.788   0.003
  0.034  -0.019  -0.000   0.002   6.329  -0.000   0.003   9.791
 -0.000  -0.000   9.792   0.000  -0.000  15.219   0.000  -0.000
 -0.140   0.082   0.000   9.788   0.003   0.000  15.213   0.004
  0.053  -0.031  -0.000   0.003   9.791  -0.000   0.004  15.218
 -0.000   0.000   0.007  -0.000  -0.000   0.011  -0.000  -0.000
  0.000  -0.000  -0.020  -0.000  -0.000  -0.031  -0.000  -0.000
 -0.002   0.003   0.000  -0.023  -0.004   0.000  -0.035  -0.006
  0.003  -0.002  -0.000   0.008  -0.020  -0.000   0.013  -0.031
 -0.001   0.000   0.000  -0.000   0.008   0.000  -0.000   0.013
 total augmentation occupancy for first ion, spin component:           1
  2.025  -0.015  -0.000   0.238  -0.084  -0.000  -0.043   0.015   0.000   0.000   0.023   0.002  -0.001
 -0.015   0.009  -0.000  -0.073   0.027   0.000   0.018  -0.006  -0.000  -0.000  -0.002   0.001  -0.000
 -0.000  -0.000   1.523  -0.000  -0.000  -0.411   0.000   0.000   0.121  -0.043   0.000   0.000  -0.000
  0.238  -0.073  -0.000   1.835  -0.003  -0.000  -0.485  -0.013   0.000   0.000  -0.266  -0.016  -0.001
 -0.084   0.027  -0.000  -0.003   1.516   0.000  -0.013  -0.404  -0.000  -0.000  -0.077  -0.045  -0.005
 -0.000   0.000  -0.411  -0.000   0.000   0.120   0.000  -0.000  -0.032   0.012  -0.000   0.000  -0.000
 -0.043   0.018   0.000  -0.485  -0.013   0.000   0.140   0.007  -0.000  -0.000   0.074   0.004   0.000
  0.015  -0.006   0.000  -0.013  -0.404  -0.000   0.007   0.117   0.000   0.000   0.020   0.012   0.002
  0.000  -0.000   0.121   0.000  -0.000  -0.032  -0.000   0.000   0.078   0.000  -0.000  -0.000   0.000
  0.000  -0.000  -0.043   0.000  -0.000   0.012  -0.000   0.000   0.000   0.021  -0.000  -0.000   0.000
  0.023  -0.002   0.000  -0.266  -0.077  -0.000   0.074   0.020  -0.000  -0.000   0.078   0.006   0.001
  0.002   0.001   0.000  -0.016  -0.045   0.000   0.004   0.012  -0.000  -0.000   0.006   0.022   0.000
 -0.001  -0.000  -0.000  -0.001  -0.005  -0.000   0.000   0.002   0.000   0.000   0.001   0.000   0.017


------------------------ aborting loop because EDIFF is reached ----------------------------------------


    CHARGE:  cpu time    0.2624: real time    0.2632
    FORLOC:  cpu time    0.0026: real time    0.0026
    FORNL :  cpu time    0.4511: real time    0.4521
    STRESS:  cpu time    0.9053: real time    0.9077
    FORCOR:  cpu time    0.0547: real time    0.0549
    FORHAR:  cpu time    0.0131: real time    0.0131
    MIXING:  cpu time    0.0012: real time    0.0012
    OFIELD:  cpu time    0.0000: real time    0.0000

  FORCE on cell =-STRESS in cart. coord.  units (eV):
  Direction    XX          YY          ZZ          XY          YZ          ZX
  --------------------------------------------------------------------------------------
  Alpha Z     9.57604     9.57604     9.57604
  Ewald    1620.10828  1622.98109 -2079.16210    -0.00000    -0.00000    -0.00001
  Hartree  1739.37577  1740.94204 -1693.22634    -0.00000     0.00000    -0.00000
  E(xc)     -77.72077   -77.74384   -78.93043     0.00000     0.00000     0.00000
  Local   -3612.28341 -3616.29611  3517.40004     0.00000    -0.00000     0.00001
  n-local   162.76007   162.88556   167.20594    -0.00000    -0.00000    -0.00000
  augment   -31.87742   -31.84234   -32.78701     0.00000     0.00000    -0.00000
  Kinetic   190.21930   189.87884   189.92346     0.00000     0.00000     0.00000
  Fock        0.00000     0.00000     0.00000     0.00000     0.00000     0.00000
  -------------------------------------------------------------------------------------
  Total       0.15786     0.38127    -0.00040    -0.00000     0.00000    -0.00000
  in kB       0.67733     1.63594    -0.00171    -0.00000     0.00000    -0.00000
  external pressure =        0.77 kB  Pullay stress =        0.00 kB


 VOLUME and BASIS-vectors are now :
 -----------------------------------------------------------------------------
  energy-cutoff  :      600.00
  volume of cell :      373.40
      direct lattice vectors                 reciprocal lattice vectors
     4.382356765  0.000000000  0.000000000     0.228187720  0.000000000  0.000000000
     0.000000000  4.260284273  0.000000000     0.000000000  0.234726121  0.000000000
     0.000000000  0.000000000 20.000000000     0.000000000  0.000000000  0.050000000

  length of vectors
     4.382356765  4.260284273 20.000000000     0.228187720  0.234726121  0.050000000


 FORCES acting on ions
    electron-ion (+dipol)            ewald-force                    non-local-force                 convergence-correction
 -----------------------------------------------------------------------------------------------
   0.415E+01 0.553E-07 -.145E+03   -.559E+01 -.754E-07 0.149E+03   0.144E+01 0.737E-08 -.381E+01   0.137E-04 0.126E-07 -.299E-03
   0.415E+01 -.446E-06 0.145E+03   -.559E+01 0.557E-06 -.149E+03   0.144E+01 -.882E-07 0.381E+01   0.140E-04 -.113E-07 0.305E-03
   -.516E+01 -.467E-07 -.208E+03   0.559E+01 0.687E-07 0.210E+03   -.433E+00 -.164E-08 -.202E+01   0.111E-03 -.256E-07 -.477E-03
   -.516E+01 0.476E-06 0.208E+03   0.559E+01 -.551E-06 -.210E+03   -.433E+00 0.280E-07 0.202E+01   0.111E-03 0.364E-07 0.488E-03
 -----------------------------------------------------------------------------------------------
   -.201E+01 0.386E-07 -.192E-04   0.178E-14 0.147E-14 -.284E-13   0.201E+01 -.545E-07 0.338E-05   0.250E-03 0.121E-07 0.177E-04
 
 
 POSITION                                       TOTAL-FORCE (eV/Angst)
 -----------------------------------------------------------------------------------
      2.54149      3.19521     11.37796        -0.000128      0.000000     -0.000486
      0.35031      1.06507      8.62204        -0.000127      0.000000      0.000483
      0.14973      1.06507     11.34127         0.000127     -0.000000      0.000689
      2.34091      3.19521      8.65873         0.000128     -0.000000     -0.000685
 -----------------------------------------------------------------------------------
    total drift:                               -0.000179     -0.000000      0.000002


--------------------------------------------------------------------------------------------------------



  FREE ENERGIE OF THE ION-ELECTRON SYSTEM (eV)
  ---------------------------------------------------
  free  energy   TOTEN  =       -16.26296353 eV

  energy  without entropy=      -16.26296353  energy(sigma->0) =      -16.26296353
 
 d Force = 0.3478747E-06[ 0.221E-06, 0.475E-06]  d Energy = 0.4842466E-06-0.136E-06
 d Force =-0.3552193E-01[-0.355E-01,-0.355E-01]  d Ewald  =-0.3552193E-01 0.316E-10


--------------------------------------------------------------------------------------------------------


    POTLOK:  cpu time    0.0532: real time    0.0534


--------------------------------------------------------------------------------------------------------


 Conjugate gradient step on ions:
 trial-energy change:   -0.000000  1 .order   -0.000000   -0.000000   -0.000000
  (g-gl).g =-0.391E-06      g.g   = 0.173E-06  gl.gl    = 0.186E-04
 g(Force)  = 0.173E-06   g(Stress)= 0.000E+00 ortho     = 0.194E-07
 gamma     =  -0.02106
 trial     =   2.75370
 opt step  =   5.14684  (harmonic =   5.14684) maximal distance =0.00033047
 next E    =   -16.262963   (d E  =  -0.00000)


--------------------------------------------------------------------------------------------------------


  
 reached required accuracy - stopping structural energy minimisation
 writing wavefunctions
     LOOP+:  cpu time    9.5001: real time   10.6095
    4ORBIT:  cpu time    0.0000: real time    0.0000

 total amount of memory used by VASP MPI-rank0    62730. kBytes
=======================================================================

   base      :      30000. kBytes
   nonl-proj :      12231. kBytes
   fftplans  :       2677. kBytes
   grid      :       4349. kBytes
   one-center:          8. kBytes
   wavefun   :      13465. kBytes
 
  
  
 General timing and accounting informations for this job:
 ========================================================
  
                  Total CPU time used (sec):      217.249
                            User time (sec):      214.595
                          System time (sec):        2.654
                         Elapsed time (sec):      230.495
  
                   Maximum memory used (kb):      209476.
                   Average memory used (kb):           0.
  
                          Minor page faults:      1005382
                          Major page faults:          126
                 Voluntary context switches:        11022
