Automatically generated mesh
      49
Reciprocal lattice
    0.07142857142857    0.07142857142857    0.00000000000000             1
    0.21428571428572    0.07142857142857    0.00000000000000             1
    0.35714285714286    0.07142857142857    0.00000000000000             1
    0.50000000000000    0.07142857142857    0.00000000000000             1
   -0.35714285714285    0.07142857142857    0.00000000000000             1
   -0.21428571428571    0.07142857142857    0.00000000000000             1
   -0.07142857142857    0.07142857142857    0.00000000000000             1
    0.07142857142857    0.21428571428572    0.00000000000000             1
    0.21428571428572    0.21428571428572    0.00000000000000             1
    0.35714285714286    0.21428571428572    0.00000000000000             1
    0.50000000000000    0.21428571428572    0.00000000000000             1
   -0.35714285714285    0.21428571428572    0.00000000000000             1
   -0.21428571428571    0.21428571428572    0.00000000000000             1
   -0.07142857142857    0.21428571428572    0.00000000000000             1
    0.07142857142857    0.35714285714286    0.00000000000000             1
    0.21428571428572    0.35714285714286    0.00000000000000             1
    0.35714285714286    0.35714285714286    0.00000000000000             1
    0.50000000000000    0.35714285714286    0.00000000000000             1
   -0.35714285714285    0.35714285714286    0.00000000000000             1
   -0.21428571428571    0.35714285714286    0.00000000000000             1
   -0.07142857142857    0.35714285714286    0.00000000000000             1
    0.07142857142857    0.50000000000000    0.00000000000000             1
    0.21428571428572    0.50000000000000    0.00000000000000             1
    0.35714285714286    0.50000000000000    0.00000000000000             1
    0.50000000000000    0.50000000000000    0.00000000000000             1
   -0.35714285714285    0.50000000000000    0.00000000000000             1
   -0.21428571428571    0.50000000000000    0.00000000000000             1
   -0.07142857142857    0.50000000000000    0.00000000000000             1
    0.07142857142857   -0.35714285714285    0.00000000000000             1
    0.21428571428572   -0.35714285714285    0.00000000000000             1
    0.35714285714286   -0.35714285714285    0.00000000000000             1
    0.50000000000000   -0.35714285714285    0.00000000000000             1
   -0.35714285714285   -0.35714285714285    0.00000000000000             1
   -0.21428571428571   -0.35714285714285    0.00000000000000             1
   -0.07142857142857   -0.35714285714285    0.00000000000000             1
    0.07142857142857   -0.21428571428571    0.00000000000000             1
    0.21428571428572   -0.21428571428571    0.00000000000000             1
    0.35714285714286   -0.21428571428571    0.00000000000000             1
    0.50000000000000   -0.21428571428571    0.00000000000000             1
   -0.35714285714285   -0.21428571428571    0.00000000000000             1
   -0.21428571428571   -0.21428571428571    0.00000000000000             1
   -0.07142857142857   -0.21428571428571    0.00000000000000             1
    0.07142857142857   -0.07142857142857    0.00000000000000             1
    0.21428571428572   -0.07142857142857    0.00000000000000             1
    0.35714285714286   -0.07142857142857    0.00000000000000             1
    0.50000000000000   -0.07142857142857    0.00000000000000             1
   -0.35714285714285   -0.07142857142857    0.00000000000000             1
   -0.21428571428571   -0.07142857142857    0.00000000000000             1
   -0.07142857142857   -0.07142857142857    0.00000000000000             1
