 vasp.5.4.4.18Apr17-6-g9f103f2a35 (build Sep 16 2021 13:51:27) complex          
  
 executed on             LinuxIFC date 2023.02.26  09:55:27
 running on   24 total cores
 distrk:  each k-point on   24 cores,    1 groups
 distr:  one band on NCORES_PER_BAND=  24 cores,    1 groups


--------------------------------------------------------------------------------------------------------


 INCAR:
 POTCAR:    PAW_PBE Sn 08Apr2002                  
 POTCAR:    PAW_PBE Se 06Sep2000                  

 ----------------------------------------------------------------------------- 
|                                                                             |
|           W    W    AA    RRRRR   N    N  II  N    N   GGGG   !!!           |
|           W    W   A  A   R    R  NN   N  II  NN   N  G    G  !!!           |
|           W    W  A    A  R    R  N N  N  II  N N  N  G       !!!           |
|           W WW W  AAAAAA  RRRRR   N  N N  II  N  N N  G  GGG   !            |
|           WW  WW  A    A  R   R   N   NN  II  N   NN  G    G                |
|           W    W  A    A  R    R  N    N  II  N    N   GGGG   !!!           |
|                                                                             |
|      For optimal performance we recommend to set                            |
|        NCORE= 4 - approx SQRT( number of cores)                             |
|      NCORE specifies how many cores store one orbital (NPAR=cpu/NCORE).     |
|      This setting can  greatly improve the performance of VASP for DFT.     |
|      The default,   NCORE=1            might be grossly inefficient         |
|      on modern multi-core architectures or massively parallel machines.     |
|      Do your own testing !!!!                                               |
|      Unfortunately you need to use the default for GW and RPA calculations. |
|      (for HF NCORE is supported but not extensively tested yet)             |
|                                                                             |
 ----------------------------------------------------------------------------- 

 POTCAR:    PAW_PBE Sn 08Apr2002                  
   VRHFIN =Sn: s2p2                                                             
   LEXCH  = PE                                                                  
   EATOM  =    94.0860 eV,    6.9151 Ry                                         
                                                                                
   TITEL  = PAW_PBE Sn 08Apr2002                                                
   LULTRA =        F    use ultrasoft PP ?                                      
   IUNSCR =        1    unscreen: 0-lin 1-nonlin 2-no                           
   RPACOR =    2.000    partial core radius                                     
   POMASS =  118.710; ZVAL   =    4.000    mass and valenz                      
   RCORE  =    3.000    outmost cutoff radius                                   
   RWIGS  =    2.960; RWIGS  =    1.566    wigner-seitz radius (au A)           
   ENMAX  =  103.236; ENMIN  =   77.427 eV                                      
   ICORE  =        3    local potential                                         
   LCOR   =        T    correct aug charges                                     
   LPAW   =        T    paw PP                                                  
   EAUG   =  263.585                                                            
   DEXC   =    0.000                                                            
   RMAX   =    3.078    core radius for proj-oper                               
   RAUG   =    1.300    factor for augmentation sphere                          
   RDEP   =    3.022    radius for radial grids                                 
   RDEPT  =    2.655    core radius for aug-charge                              
                                                                                
   Atomic configuration                                                         
   13 entries                                                                   
     n  l   j            E        occ.                                          
     1  0  0.50    -29007.2859   2.0000                                         
     2  0  0.50     -4378.8056   2.0000                                         
     2  1  1.50     -3930.4293   6.0000                                         
     3  0  0.50      -845.0264   2.0000                                         
     3  1  1.50      -698.5725   6.0000                                         
     3  2  2.50      -473.2839  10.0000                                         
     4  0  0.50      -133.9036   2.0000                                         
     4  1  1.50       -89.6752   6.0000                                         
     4  2  2.50       -25.8375  10.0000                                         
     5  0  0.50       -10.5484   2.0000                                         
     5  1  0.50        -3.6940   2.0000                                         
     5  2  1.50        -1.3606   0.0000                                         
     4  3  2.50        -4.0817   0.0000                                         
   Description                                                                  
     l       E           TYP  RCUT    TYP  RCUT                                 
     0    -10.5483727     23  3.000                                             
     0     27.2116520     23  3.000                                             
     1     -3.6939829     23  3.000                                             
     1      1.9821976     23  3.000                                             
     2     -1.3605826     23  3.000                                             
     3     -2.7211652     23  3.000                                             
  local pseudopotential read in
  partial core-charges read in
  partial kinetic energy density read in
  atomic valenz-charges read in
  non local Contribution for L=           0  read in
    real space projection operators read in
  non local Contribution for L=           0  read in
    real space projection operators read in
  non local Contribution for L=           1  read in
    real space projection operators read in
  non local Contribution for L=           1  read in
    real space projection operators read in
  non local Contribution for L=           2  read in
    real space projection operators read in
    PAW grid and wavefunctions read in
 
   number of l-projection  operators is LMAX  =           5
   number of lm-projection operators is LMMAX =          13
 
 POTCAR:    PAW_PBE Se 06Sep2000                  
   VRHFIN =Se: s2p4                                                             
   LEXCH  = PE                                                                  
   EATOM  =   257.1286 eV,   18.8984 Ry                                         
                                                                                
   TITEL  = PAW_PBE Se 06Sep2000                                                
   LULTRA =        F    use ultrasoft PP ?                                      
   IUNSCR =        1    unscreen: 0-lin 1-nonlin 2-no                           
   RPACOR =    1.900    partial core radius                                     
   POMASS =   78.960; ZVAL   =    6.000    mass and valenz                      
   RCORE  =    2.100    outmost cutoff radius                                   
   RWIGS  =    2.200; RWIGS  =    1.164    wigner-seitz radius (au A)           
   ENMAX  =  211.555; ENMIN  =  158.666 eV                                      
   ICORE  =        3    local potential                                         
   LCOR   =        T    correct aug charges                                     
   LPAW   =        T    paw PP                                                  
   EAUG   =  446.842                                                            
   DEXC   =    0.000                                                            
   RMAX   =    2.147    core radius for proj-oper                               
   RAUG   =    1.300    factor for augmentation sphere                          
   RDEP   =    2.177    radius for radial grids                                 
   RDEPT  =    1.928    core radius for aug-charge                              
                                                                                
   Atomic configuration                                                         
   10 entries                                                                   
     n  l   j            E        occ.                                          
     1  0  0.50    -12503.4787   2.0000                                         
     2  0  0.50     -1606.9547   2.0000                                         
     2  1  1.50     -1413.3140   6.0000                                         
     3  0  0.50      -213.4885   2.0000                                         
     3  1  1.50      -152.9538   6.0000                                         
     3  2  2.50       -53.1221  10.0000                                         
     4  0  0.50       -17.2865   2.0000                                         
     4  1  0.50        -6.5110   4.0000                                         
     4  2  2.50        -6.8029   0.0000                                         
     4  3  2.50        -6.8029   0.0000                                         
   Description                                                                  
     l       E           TYP  RCUT    TYP  RCUT                                 
     0    -17.2865377     23  2.100                                             
     0    -15.3094411     23  2.100                                             
     1     -6.5110275     23  2.100                                             
     1     -0.0695192     23  2.100                                             
     2     -6.8029130     23  2.100                                             
     3     -1.3605826      7  2.100                                             
  local pseudopotential read in
  partial core-charges read in
  partial kinetic energy density read in
  atomic valenz-charges read in
  non local Contribution for L=           0  read in
    real space projection operators read in
  non local Contribution for L=           0  read in
    real space projection operators read in
  non local Contribution for L=           1  read in
    real space projection operators read in
  non local Contribution for L=           1  read in
    real space projection operators read in
  non local Contribution for L=           2  read in
    real space projection operators read in
    PAW grid and wavefunctions read in
 
   number of l-projection  operators is LMAX  =           5
   number of lm-projection operators is LMMAX =          13
 
 WARNING: PSMAXN for non-local potential too small
          PSMAXN should be >   12.5490833729506       NTYP=           1
  PAW_PBE Sn 08Apr2002                  :
 energy of atom  1       EATOM=  -94.0860
 kinetic energy error for atom=    0.0000 (will be added to EATOM!!)
  PAW_PBE Se 06Sep2000                  :
 energy of atom  2       EATOM= -257.1286
 kinetic energy error for atom=    0.0006 (will be added to EATOM!!)
 
 
 POSCAR:  SnSe-Monolayer                         
  positions in direct lattice
  velocities in cartesian coordinates
 exchange correlation table for  LEXCH =        8
   RHO(1)=    0.500       N(1)  =     2000
   RHO(2)=  100.500       N(2)  =     4000
 


--------------------------------------------------------------------------------------------------------


 ion  position               nearest neighbor table
   1  0.581  0.750  0.569-   4 2.72   3 2.93   3 2.93   3 3.24   3 3.24
   2  0.081  0.250  0.431-   3 2.72   4 2.93   4 2.93   4 3.24   4 3.24
   3  0.033  0.250  0.567-   2 2.72   1 2.93   1 2.93   1 3.24   1 3.24
   4  0.533  0.750  0.433-   1 2.72   2 2.93   2 2.93   2 3.24   2 3.24
 
  LATTYP: Found a simple orthorhombic cell.
 ALAT       =     4.2924778572
 B/A-ratio  =     1.0291062100
 C/A-ratio  =     4.6593134934
  
  Lattice vectors:
  
 A1 = (   0.0000000000,  -4.2924778572,   0.0000000000)
 A2 = (  -4.4174156191,   0.0000000000,   0.0000000000)
 A3 = (   0.0000000000,   0.0000000000, -20.0000000000)


Analysis of symmetry for initial positions (statically):
=====================================================================
 Subroutine PRICEL returns:
 Original cell was already a primitive cell.
 

 Routine SETGRP: Setting up the symmetry group for a 
 simple orthorhombic supercell.


 Subroutine GETGRP returns: Found  4 space group operations
 (whereof  1 operations were pure point group operations)
 out of a pool of  8 trial point group operations.


The static configuration has the point symmetry C_1 .
 The point group associated with its full space group is C_2v.


Analysis of symmetry for dynamics (positions and initial velocities):
=====================================================================
 Subroutine PRICEL returns:
 Original cell was already a primitive cell.
 

 Routine SETGRP: Setting up the symmetry group for a 
 simple orthorhombic supercell.


 Subroutine GETGRP returns: Found  4 space group operations
 (whereof  1 operations were pure point group operations)
 out of a pool of  8 trial point group operations.


The dynamic configuration has the point symmetry C_1 .
 The point group associated with its full space group is C_2v.


 Subroutine INISYM returns: Found  4 space group operations
 (whereof  1 operations are pure point group operations),
 and found     1 'primitive' translations

 
 
 KPOINTS: Automatic                               

Automatic generation of k-mesh.
Space group operators:
 irot       det(A)        alpha          n_x          n_y          n_z        tau_x        tau_y        tau_z
    1     1.000000     0.000000     1.000000     0.000000     0.000000     0.000000     0.000000     0.000000
    2    -1.000000   180.000000     0.000000     0.000000     1.000000    -0.500000    -0.500000     0.000000
    3     1.000000   180.000000     1.000000     0.000000     0.000000    -0.500000     0.000000     0.000000
    4    -1.000000   180.000000     0.000000     1.000000     0.000000     0.000000    -0.500000     0.000000
 
 Subroutine IBZKPT returns following result:
 ===========================================
 
 Found     64 irreducible k-points:
 
 Following reciprocal coordinates:
            Coordinates               Weight
  0.000000  0.000000  0.000000      1.000000
  0.066667  0.000000  0.000000      2.000000
  0.133333  0.000000  0.000000      2.000000
  0.200000  0.000000  0.000000      2.000000
  0.266667  0.000000  0.000000      2.000000
  0.333333  0.000000  0.000000      2.000000
  0.400000  0.000000  0.000000      2.000000
  0.466667  0.000000  0.000000      2.000000
  0.000000  0.066667  0.000000      2.000000
  0.066667  0.066667  0.000000      4.000000
  0.133333  0.066667  0.000000      4.000000
  0.200000  0.066667  0.000000      4.000000
  0.266667  0.066667  0.000000      4.000000
  0.333333  0.066667  0.000000      4.000000
  0.400000  0.066667  0.000000      4.000000
  0.466667  0.066667  0.000000      4.000000
  0.000000  0.133333  0.000000      2.000000
  0.066667  0.133333  0.000000      4.000000
  0.133333  0.133333  0.000000      4.000000
  0.200000  0.133333  0.000000      4.000000
  0.266667  0.133333  0.000000      4.000000
  0.333333  0.133333  0.000000      4.000000
  0.400000  0.133333  0.000000      4.000000
  0.466667  0.133333  0.000000      4.000000
  0.000000  0.200000  0.000000      2.000000
  0.066667  0.200000  0.000000      4.000000
  0.133333  0.200000  0.000000      4.000000
  0.200000  0.200000  0.000000      4.000000
  0.266667  0.200000  0.000000      4.000000
  0.333333  0.200000  0.000000      4.000000
  0.400000  0.200000  0.000000      4.000000
  0.466667  0.200000  0.000000      4.000000
  0.000000  0.266667  0.000000      2.000000
  0.066667  0.266667  0.000000      4.000000
  0.133333  0.266667  0.000000      4.000000
  0.200000  0.266667  0.000000      4.000000
  0.266667  0.266667  0.000000      4.000000
  0.333333  0.266667  0.000000      4.000000
  0.400000  0.266667  0.000000      4.000000
  0.466667  0.266667  0.000000      4.000000
  0.000000  0.333333  0.000000      2.000000
  0.066667  0.333333  0.000000      4.000000
  0.133333  0.333333  0.000000      4.000000
  0.200000  0.333333  0.000000      4.000000
  0.266667  0.333333  0.000000      4.000000
  0.333333  0.333333  0.000000      4.000000
  0.400000  0.333333  0.000000      4.000000
  0.466667  0.333333  0.000000      4.000000
  0.000000  0.400000  0.000000      2.000000
  0.066667  0.400000  0.000000      4.000000
  0.133333  0.400000  0.000000      4.000000
  0.200000  0.400000  0.000000      4.000000
  0.266667  0.400000  0.000000      4.000000
  0.333333  0.400000  0.000000      4.000000
  0.400000  0.400000  0.000000      4.000000
  0.466667  0.400000  0.000000      4.000000
  0.000000  0.466667  0.000000      2.000000
  0.066667  0.466667  0.000000      4.000000
  0.133333  0.466667  0.000000      4.000000
  0.200000  0.466667  0.000000      4.000000
  0.266667  0.466667  0.000000      4.000000
  0.333333  0.466667  0.000000      4.000000
  0.400000  0.466667  0.000000      4.000000
  0.466667  0.466667  0.000000      4.000000
 
 Following cartesian coordinates:
            Coordinates               Weight
  0.000000  0.000000  0.000000      1.000000
  0.015092  0.000000  0.000000      2.000000
  0.030184  0.000000  0.000000      2.000000
  0.045275  0.000000  0.000000      2.000000
  0.060367  0.000000  0.000000      2.000000
  0.075459  0.000000  0.000000      2.000000
  0.090551  0.000000  0.000000      2.000000
  0.105642  0.000000  0.000000      2.000000
  0.000000  0.015531  0.000000      2.000000
  0.015092  0.015531  0.000000      4.000000
  0.030184  0.015531  0.000000      4.000000
  0.045275  0.015531  0.000000      4.000000
  0.060367  0.015531  0.000000      4.000000
  0.075459  0.015531  0.000000      4.000000
  0.090551  0.015531  0.000000      4.000000
  0.105642  0.015531  0.000000      4.000000
  0.000000  0.031062  0.000000      2.000000
  0.015092  0.031062  0.000000      4.000000
  0.030184  0.031062  0.000000      4.000000
  0.045275  0.031062  0.000000      4.000000
  0.060367  0.031062  0.000000      4.000000
  0.075459  0.031062  0.000000      4.000000
  0.090551  0.031062  0.000000      4.000000
  0.105642  0.031062  0.000000      4.000000
  0.000000  0.046593  0.000000      2.000000
  0.015092  0.046593  0.000000      4.000000
  0.030184  0.046593  0.000000      4.000000
  0.045275  0.046593  0.000000      4.000000
  0.060367  0.046593  0.000000      4.000000
  0.075459  0.046593  0.000000      4.000000
  0.090551  0.046593  0.000000      4.000000
  0.105642  0.046593  0.000000      4.000000
  0.000000  0.062124  0.000000      2.000000
  0.015092  0.062124  0.000000      4.000000
  0.030184  0.062124  0.000000      4.000000
  0.045275  0.062124  0.000000      4.000000
  0.060367  0.062124  0.000000      4.000000
  0.075459  0.062124  0.000000      4.000000
  0.090551  0.062124  0.000000      4.000000
  0.105642  0.062124  0.000000      4.000000
  0.000000  0.077655  0.000000      2.000000
  0.015092  0.077655  0.000000      4.000000
  0.030184  0.077655  0.000000      4.000000
  0.045275  0.077655  0.000000      4.000000
  0.060367  0.077655  0.000000      4.000000
  0.075459  0.077655  0.000000      4.000000
  0.090551  0.077655  0.000000      4.000000
  0.105642  0.077655  0.000000      4.000000
  0.000000  0.093186  0.000000      2.000000
  0.015092  0.093186  0.000000      4.000000
  0.030184  0.093186  0.000000      4.000000
  0.045275  0.093186  0.000000      4.000000
  0.060367  0.093186  0.000000      4.000000
  0.075459  0.093186  0.000000      4.000000
  0.090551  0.093186  0.000000      4.000000
  0.105642  0.093186  0.000000      4.000000
  0.000000  0.108717  0.000000      2.000000
  0.015092  0.108717  0.000000      4.000000
  0.030184  0.108717  0.000000      4.000000
  0.045275  0.108717  0.000000      4.000000
  0.060367  0.108717  0.000000      4.000000
  0.075459  0.108717  0.000000      4.000000
  0.090551  0.108717  0.000000      4.000000
  0.105642  0.108717  0.000000      4.000000
 


--------------------------------------------------------------------------------------------------------




 Dimension of arrays:
   k-points           NKPTS =     64   k-points in BZ     NKDIM =     64   number of bands    NBANDS=     14
   number of dos      NEDOS =    301   number of ions     NIONS =      4
   non local maximal  LDIM  =      5   non local SUM 2l+1 LMDIM =     13
   total plane-waves  NPLWV = 207360
   max r-space proj   IRMAX =      1   max aug-charges    IRDMAX=  52826
   dimension x,y,z NGX =    36 NGY =   36 NGZ =  160
   dimension x,y,z NGXF=    72 NGYF=   72 NGZF=  320
   support grid    NGXF=    72 NGYF=   72 NGZF=  320
   ions per type =               2   2
   NGX,Y,Z   is equivalent  to a cutoff of  13.55, 13.94, 13.30 a.u.
   NGXF,Y,Z  is equivalent  to a cutoff of  27.10, 27.89, 26.60 a.u.

 SYSTEM =  SnSe                                    
 POSCAR =   SnSe-Monolayer                         

 Startparameter for this run:
   NWRITE =      2    write-flag & timer
   PREC   = accura    normal or accurate (medium, high low for compatibility)
   ISTART =      0    job   : 0-new  1-cont  2-samecut
   ICHARG =      2    charge: 1-file 2-atom 10-const
   ISPIN  =      1    spin polarized calculation?
   LNONCOLLINEAR =      F non collinear calculations
   LSORBIT =      F    spin-orbit coupling
   INIWAV =      1    electr: 0-lowe 1-rand  2-diag
   LASPH  =      F    aspherical Exc in radial PAW
   METAGGA=      F    non-selfconsistent MetaGGA calc.

 Electronic Relaxation 1
   ENCUT  =  600.0 eV  44.10 Ry    6.64 a.u.   8.82  8.57 39.94*2*pi/ulx,y,z
   ENINI  =  600.0     initial cutoff
   ENAUG  =  446.8 eV  augmentation charge cutoff
   NELM   =     60;   NELMIN=  2; NELMDL= -5     # of ELM steps 
   EDIFF  = 0.1E-05   stopping-criterion for ELM
   LREAL  =      F    real-space projection
   NLSPLINE    = F    spline interpolate recip. space projectors
   LCOMPAT=      F    compatible to vasp.4.4
   GGA_COMPAT  = T    GGA compatible to vasp.4.4-vasp.4.6
   LMAXPAW     = -100 max onsite density
   LMAXMIX     =    2 max onsite mixed and CHGCAR
   VOSKOWN=      0    Vosko Wilk Nusair interpolation
   ROPT   =    0.00000   0.00000
 Ionic relaxation
   EDIFFG = -.1E-02   stopping-criterion for IOM
   NSW    =    100    number of steps for IOM
   NBLOCK =      1;   KBLOCK =    100    inner block; outer block 
   IBRION =      2    ionic relax: 0-MD 1-quasi-New 2-CG
   NFREE  =      1    steps in history (QN), initial steepest desc. (CG)
   ISIF   =      2    stress and relaxation
   IWAVPR =     11    prediction:  0-non 1-charg 2-wave 3-comb
   ISYM   =      2    0-nonsym 1-usesym 2-fastsym
   LCORR  =      T    Harris-Foulkes like correction to forces

   POTIM  = 0.5000    time-step for ionic-motion
   TEIN   =    0.0    initial temperature
   TEBEG  =    0.0;   TEEND  =   0.0 temperature during run
   SMASS  =  -3.00    Nose mass-parameter (am)
   estimated Nose-frequenzy (Omega)   =  0.10E-29 period in steps =****** mass=  -0.446E-27a.u.
   SCALEE = 1.0000    scale energy and forces
   NPACO  =    256;   APACO  = 16.0  distance and # of slots for P.C.
   PSTRESS=    0.0 pullay stress

  Mass of Ions in am
   POMASS = 118.71 78.96
  Ionic Valenz
   ZVAL   =   4.00  6.00
  Atomic Wigner-Seitz radii
   RWIGS  =  -1.00 -1.00
  virtual crystal weights 
   VCA    =   1.00  1.00
   NELECT =      20.0000    total number of electrons
   NUPDOWN=      -1.0000    fix difference up-down

 DOS related values:
   EMIN   =  10.00;   EMAX   =-10.00  energy-range for DOS
   EFERMI =   0.00
   ISMEAR =     0;   SIGMA  =   0.10  broadening in eV -4-tet -1-fermi 0-gaus

 Electronic relaxation 2 (details)
   IALGO  =     38    algorithm
   LDIAG  =      T    sub-space diagonalisation (order eigenvalues)
   LSUBROT=      F    optimize rotation matrix (better conditioning)
   TURBO    =      0    0=normal 1=particle mesh
   IRESTART =      0    0=no restart 2=restart with 2 vectors
   NREBOOT  =      0    no. of reboots
   NMIN     =      0    reboot dimension
   EREF     =   0.00    reference energy to select bands
   IMIX   =      4    mixing-type and parameters
     AMIX     =   0.40;   BMIX     =  1.00
     AMIX_MAG =   1.60;   BMIX_MAG =  1.00
     AMIN     =   0.10
     WC   =   100.;   INIMIX=   1;  MIXPRE=   1;  MAXMIX= -45

 Intra band minimization:
   WEIMIN = 0.0010     energy-eigenvalue tresh-hold
   EBREAK =  0.18E-07  absolut break condition
   DEPER  =   0.30     relativ break condition  

   TIME   =   0.40     timestep for ELM

  volume/ion in A,a.u.               =      94.81       639.80
  Fermi-wavevector in a.u.,A,eV,Ry     =   0.613926  1.160152  5.128106  0.376905
  Thomas-Fermi vector in A             =   1.670752
 
 Write flags
   LWAVE        =      T    write WAVECAR
   LDOWNSAMPLE  =      F    k-point downsampling of WAVECAR
   LCHARG       =      T    write CHGCAR
   LVTOT        =      F    write LOCPOT, total local potential
   LVHAR        =      F    write LOCPOT, Hartree potential only
   LELF         =      F    write electronic localiz. function (ELF)
   LORBIT       =      0    0 simple, 1 ext, 2 COOP (PROOUT), +10 PAW based schemes


 Dipole corrections
   LMONO  =      F    monopole corrections only (constant potential shift)
   LDIPOL =      F    correct potential (dipole corrections)
   IDIPOL =      0    1-x, 2-y, 3-z, 4-all directions 
   EPSILON=  1.0000000 bulk dielectric constant

 Exchange correlation treatment:
   GGA     =    PE    GGA type
   LEXCH   =     8    internal setting for exchange type
   VOSKOWN=      0    Vosko Wilk Nusair interpolation
   LHFCALC =     F    Hartree Fock is set to
   LHFONE  =     F    Hartree Fock one center treatment
   AEXX    =    0.0000 exact exchange contribution

 Linear response parameters
   LEPSILON=     F    determine dielectric tensor
   LRPA    =     F    only Hartree local field effects (RPA)
   LNABLA  =     F    use nabla operator in PAW spheres
   LVEL    =     F    velocity operator in full k-point grid
   LINTERFAST=   F  fast interpolation
   KINTER  =     0    interpolate to denser k-point grid
   CSHIFT  =0.1000    complex shift for real part using Kramers Kronig
   OMEGAMAX=  -1.0    maximum frequency
   DEG_THRESHOLD= 0.2000000E-02 threshold for treating states as degnerate
   RTIME   =   -0.100 relaxation time in fs
  (WPLASMAI=    0.000 imaginary part of plasma frequency in eV, 0.658/RTIME)
   DFIELD  = 0.0000000 0.0000000 0.0000000 field for delta impulse in time
 
 Orbital magnetization related:
   ORBITALMAG=     F  switch on orbital magnetization
   LCHIMAG   =     F  perturbation theory with respect to B field
   DQ        =  0.001000  dq finite difference perturbation B field
   LLRAUG    =     F  two centre corrections for induced B field



--------------------------------------------------------------------------------------------------------


 conjugate gradient relaxation of ions
 charge density and potential will be updated during run
 non-spin polarized calculation
 Variant of blocked Davidson
 Davidson routine will perform the subspace rotation
 perform sub-space diagonalisation
    after iterative eigenvector-optimisation
 modified Broyden-mixing scheme, WC =      100.0
 initial mixing is a Kerker type mixing with AMIX =  0.4000 and BMIX =      1.0000
 Hartree-type preconditioning will be used
 using additional bands            4
 reciprocal scheme for non local part
 use partial core corrections
 calculate Harris-corrections to forces 
   (improved forces if not selfconsistent)
 use gradient corrections 
 use of overlap-Matrix (Vanderbilt PP)
 Gauss-broadening in eV      SIGMA  =   0.10


--------------------------------------------------------------------------------------------------------


  energy-cutoff  :      600.00
  volume of cell :      379.23
      direct lattice vectors                 reciprocal lattice vectors
     4.417415619  0.000000000  0.000000000     0.226376707  0.000000000  0.000000000
     0.000000000  4.292477857  0.000000000     0.000000000  0.232965675  0.000000000
     0.000000000  0.000000000 20.000000000     0.000000000  0.000000000  0.050000000

  length of vectors
     4.417415619  4.292477857 20.000000000     0.226376707  0.232965675  0.050000000


 
 k-points in units of 2pi/SCALE and weight: Automatic                               
   0.00000000  0.00000000  0.00000000       0.004
   0.01509178  0.00000000  0.00000000       0.009
   0.03018356  0.00000000  0.00000000       0.009
   0.04527534  0.00000000  0.00000000       0.009
   0.06036712  0.00000000  0.00000000       0.009
   0.07545890  0.00000000  0.00000000       0.009
   0.09055068  0.00000000  0.00000000       0.009
   0.10564246  0.00000000  0.00000000       0.009
   0.00000000  0.01553104  0.00000000       0.009
   0.01509178  0.01553104  0.00000000       0.018
   0.03018356  0.01553104  0.00000000       0.018
   0.04527534  0.01553104  0.00000000       0.018
   0.06036712  0.01553104  0.00000000       0.018
   0.07545890  0.01553104  0.00000000       0.018
   0.09055068  0.01553104  0.00000000       0.018
   0.10564246  0.01553104  0.00000000       0.018
   0.00000000  0.03106209  0.00000000       0.009
   0.01509178  0.03106209  0.00000000       0.018
   0.03018356  0.03106209  0.00000000       0.018
   0.04527534  0.03106209  0.00000000       0.018
   0.06036712  0.03106209  0.00000000       0.018
   0.07545890  0.03106209  0.00000000       0.018
   0.09055068  0.03106209  0.00000000       0.018
   0.10564246  0.03106209  0.00000000       0.018
   0.00000000  0.04659313  0.00000000       0.009
   0.01509178  0.04659313  0.00000000       0.018
   0.03018356  0.04659313  0.00000000       0.018
   0.04527534  0.04659313  0.00000000       0.018
   0.06036712  0.04659313  0.00000000       0.018
   0.07545890  0.04659313  0.00000000       0.018
   0.09055068  0.04659313  0.00000000       0.018
   0.10564246  0.04659313  0.00000000       0.018
   0.00000000  0.06212418  0.00000000       0.009
   0.01509178  0.06212418  0.00000000       0.018
   0.03018356  0.06212418  0.00000000       0.018
   0.04527534  0.06212418  0.00000000       0.018
   0.06036712  0.06212418  0.00000000       0.018
   0.07545890  0.06212418  0.00000000       0.018
   0.09055068  0.06212418  0.00000000       0.018
   0.10564246  0.06212418  0.00000000       0.018
   0.00000000  0.07765522  0.00000000       0.009
   0.01509178  0.07765522  0.00000000       0.018
   0.03018356  0.07765522  0.00000000       0.018
   0.04527534  0.07765522  0.00000000       0.018
   0.06036712  0.07765522  0.00000000       0.018
   0.07545890  0.07765522  0.00000000       0.018
   0.09055068  0.07765522  0.00000000       0.018
   0.10564246  0.07765522  0.00000000       0.018
   0.00000000  0.09318627  0.00000000       0.009
   0.01509178  0.09318627  0.00000000       0.018
   0.03018356  0.09318627  0.00000000       0.018
   0.04527534  0.09318627  0.00000000       0.018
   0.06036712  0.09318627  0.00000000       0.018
   0.07545890  0.09318627  0.00000000       0.018
   0.09055068  0.09318627  0.00000000       0.018
   0.10564246  0.09318627  0.00000000       0.018
   0.00000000  0.10871731  0.00000000       0.009
   0.01509178  0.10871731  0.00000000       0.018
   0.03018356  0.10871731  0.00000000       0.018
   0.04527534  0.10871731  0.00000000       0.018
   0.06036712  0.10871731  0.00000000       0.018
   0.07545890  0.10871731  0.00000000       0.018
   0.09055068  0.10871731  0.00000000       0.018
   0.10564246  0.10871731  0.00000000       0.018
 
 k-points in reciprocal lattice and weights: Automatic                               
   0.00000000  0.00000000  0.00000000       0.004
   0.06666667  0.00000000  0.00000000       0.009
   0.13333333  0.00000000  0.00000000       0.009
   0.20000000  0.00000000  0.00000000       0.009
   0.26666667  0.00000000  0.00000000       0.009
   0.33333333  0.00000000  0.00000000       0.009
   0.40000000  0.00000000  0.00000000       0.009
   0.46666667  0.00000000  0.00000000       0.009
   0.00000000  0.06666667  0.00000000       0.009
   0.06666667  0.06666667  0.00000000       0.018
   0.13333333  0.06666667  0.00000000       0.018
   0.20000000  0.06666667  0.00000000       0.018
   0.26666667  0.06666667  0.00000000       0.018
   0.33333333  0.06666667  0.00000000       0.018
   0.40000000  0.06666667  0.00000000       0.018
   0.46666667  0.06666667  0.00000000       0.018
   0.00000000  0.13333333  0.00000000       0.009
   0.06666667  0.13333333  0.00000000       0.018
   0.13333333  0.13333333  0.00000000       0.018
   0.20000000  0.13333333  0.00000000       0.018
   0.26666667  0.13333333  0.00000000       0.018
   0.33333333  0.13333333  0.00000000       0.018
   0.40000000  0.13333333  0.00000000       0.018
   0.46666667  0.13333333  0.00000000       0.018
   0.00000000  0.20000000  0.00000000       0.009
   0.06666667  0.20000000  0.00000000       0.018
   0.13333333  0.20000000  0.00000000       0.018
   0.20000000  0.20000000  0.00000000       0.018
   0.26666667  0.20000000  0.00000000       0.018
   0.33333333  0.20000000  0.00000000       0.018
   0.40000000  0.20000000  0.00000000       0.018
   0.46666667  0.20000000  0.00000000       0.018
   0.00000000  0.26666667  0.00000000       0.009
   0.06666667  0.26666667  0.00000000       0.018
   0.13333333  0.26666667  0.00000000       0.018
   0.20000000  0.26666667  0.00000000       0.018
   0.26666667  0.26666667  0.00000000       0.018
   0.33333333  0.26666667  0.00000000       0.018
   0.40000000  0.26666667  0.00000000       0.018
   0.46666667  0.26666667  0.00000000       0.018
   0.00000000  0.33333333  0.00000000       0.009
   0.06666667  0.33333333  0.00000000       0.018
   0.13333333  0.33333333  0.00000000       0.018
   0.20000000  0.33333333  0.00000000       0.018
   0.26666667  0.33333333  0.00000000       0.018
   0.33333333  0.33333333  0.00000000       0.018
   0.40000000  0.33333333  0.00000000       0.018
   0.46666667  0.33333333  0.00000000       0.018
   0.00000000  0.40000000  0.00000000       0.009
   0.06666667  0.40000000  0.00000000       0.018
   0.13333333  0.40000000  0.00000000       0.018
   0.20000000  0.40000000  0.00000000       0.018
   0.26666667  0.40000000  0.00000000       0.018
   0.33333333  0.40000000  0.00000000       0.018
   0.40000000  0.40000000  0.00000000       0.018
   0.46666667  0.40000000  0.00000000       0.018
   0.00000000  0.46666667  0.00000000       0.009
   0.06666667  0.46666667  0.00000000       0.018
   0.13333333  0.46666667  0.00000000       0.018
   0.20000000  0.46666667  0.00000000       0.018
   0.26666667  0.46666667  0.00000000       0.018
   0.33333333  0.46666667  0.00000000       0.018
   0.40000000  0.46666667  0.00000000       0.018
   0.46666667  0.46666667  0.00000000       0.018
 
 position of ions in fractional coordinates (direct lattice) 
   0.58124336  0.75000000  0.56874314
   0.08124336  0.25000000  0.43125686
   0.03286064  0.25000000  0.56707387
   0.53286061  0.75000000  0.43292613
 
 position of ions in cartesian coordinates  (Angst):
   2.56759349  3.21935839 11.37486283
   0.35888568  1.07311946  8.62513717
   0.14515912  1.07311946 11.34147733
   2.35386680  3.21935839  8.65852267
 


--------------------------------------------------------------------------------------------------------


 k-point  1 :   0.0000 0.0000 0.0000  plane waves:   12711
 k-point  2 :   0.0667 0.0000 0.0000  plane waves:   12701
 k-point  3 :   0.1333 0.0000 0.0000  plane waves:   12681
 k-point  4 :   0.2000 0.0000 0.0000  plane waves:   12662
 k-point  5 :   0.2667 0.0000 0.0000  plane waves:   12648
 k-point  6 :   0.3333 0.0000 0.0000  plane waves:   12676
 k-point  7 :   0.4000 0.0000 0.0000  plane waves:   12686
 k-point  8 :   0.4667 0.0000 0.0000  plane waves:   12704
 k-point  9 :   0.0000 0.0667 0.0000  plane waves:   12649
 k-point 10 :   0.0667 0.0667 0.0000  plane waves:   12677
 k-point 11 :   0.1333 0.0667 0.0000  plane waves:   12682
 k-point 12 :   0.2000 0.0667 0.0000  plane waves:   12659
 k-point 13 :   0.2667 0.0667 0.0000  plane waves:   12669
 k-point 14 :   0.3333 0.0667 0.0000  plane waves:   12688
 k-point 15 :   0.4000 0.0667 0.0000  plane waves:   12668
 k-point 16 :   0.4667 0.0667 0.0000  plane waves:   12690
 k-point 17 :   0.0000 0.1333 0.0000  plane waves:   12659
 k-point 18 :   0.0667 0.1333 0.0000  plane waves:   12648
 k-point 19 :   0.1333 0.1333 0.0000  plane waves:   12658
 k-point 20 :   0.2000 0.1333 0.0000  plane waves:   12640
 k-point 21 :   0.2667 0.1333 0.0000  plane waves:   12649
 k-point 22 :   0.3333 0.1333 0.0000  plane waves:   12666
 k-point 23 :   0.4000 0.1333 0.0000  plane waves:   12685
 k-point 24 :   0.4667 0.1333 0.0000  plane waves:   12681
 k-point 25 :   0.0000 0.2000 0.0000  plane waves:   12663
 k-point 26 :   0.0667 0.2000 0.0000  plane waves:   12656
 k-point 27 :   0.1333 0.2000 0.0000  plane waves:   12652
 k-point 28 :   0.2000 0.2000 0.0000  plane waves:   12658
 k-point 29 :   0.2667 0.2000 0.0000  plane waves:   12661
 k-point 30 :   0.3333 0.2000 0.0000  plane waves:   12647
 k-point 31 :   0.4000 0.2000 0.0000  plane waves:   12679
 k-point 32 :   0.4667 0.2000 0.0000  plane waves:   12680
 k-point 33 :   0.0000 0.2667 0.0000  plane waves:   12647
 k-point 34 :   0.0667 0.2667 0.0000  plane waves:   12640
 k-point 35 :   0.1333 0.2667 0.0000  plane waves:   12640
 k-point 36 :   0.2000 0.2667 0.0000  plane waves:   12645
 k-point 37 :   0.2667 0.2667 0.0000  plane waves:   12662
 k-point 38 :   0.3333 0.2667 0.0000  plane waves:   12660
 k-point 39 :   0.4000 0.2667 0.0000  plane waves:   12667
 k-point 40 :   0.4667 0.2667 0.0000  plane waves:   12679
 k-point 41 :   0.0000 0.3333 0.0000  plane waves:   12611
 k-point 42 :   0.0667 0.3333 0.0000  plane waves:   12626
 k-point 43 :   0.1333 0.3333 0.0000  plane waves:   12637
 k-point 44 :   0.2000 0.3333 0.0000  plane waves:   12642
 k-point 45 :   0.2667 0.3333 0.0000  plane waves:   12643
 k-point 46 :   0.3333 0.3333 0.0000  plane waves:   12650
 k-point 47 :   0.4000 0.3333 0.0000  plane waves:   12660
 k-point 48 :   0.4667 0.3333 0.0000  plane waves:   12663
 k-point 49 :   0.0000 0.4000 0.0000  plane waves:   12607
 k-point 50 :   0.0667 0.4000 0.0000  plane waves:   12610
 k-point 51 :   0.1333 0.4000 0.0000  plane waves:   12613
 k-point 52 :   0.2000 0.4000 0.0000  plane waves:   12636
 k-point 53 :   0.2667 0.4000 0.0000  plane waves:   12649
 k-point 54 :   0.3333 0.4000 0.0000  plane waves:   12654
 k-point 55 :   0.4000 0.4000 0.0000  plane waves:   12651
 k-point 56 :   0.4667 0.4000 0.0000  plane waves:   12645
 k-point 57 :   0.0000 0.4667 0.0000  plane waves:   12626
 k-point 58 :   0.0667 0.4667 0.0000  plane waves:   12609
 k-point 59 :   0.1333 0.4667 0.0000  plane waves:   12622
 k-point 60 :   0.2000 0.4667 0.0000  plane waves:   12627
 k-point 61 :   0.2667 0.4667 0.0000  plane waves:   12635
 k-point 62 :   0.3333 0.4667 0.0000  plane waves:   12654
 k-point 63 :   0.4000 0.4667 0.0000  plane waves:   12646
 k-point 64 :   0.4667 0.4667 0.0000  plane waves:   12634

 maximum and minimum number of plane-waves per node :       558      502

 maximum number of plane-waves:     12711
 maximum index in each direction: 
   IXMAX=    8   IYMAX=    8   IZMAX=   39
   IXMIN=   -9   IYMIN=   -9   IZMIN=  -39


 parallel 3D FFT for wavefunctions:
    minimum data exchange during FFTs selected (reduces bandwidth)
 parallel 3D FFT for charge:
    minimum data exchange during FFTs selected (reduces bandwidth)


 total amount of memory used by VASP MPI-rank0    52185. kBytes
=======================================================================

   base      :      30000. kBytes
   nonl-proj :       7223. kBytes
   fftplans  :       2678. kBytes
   grid      :       4349. kBytes
   one-center:          8. kBytes
   wavefun   :       7927. kBytes
 
     INWAV:  cpu time    0.0000: real time    0.0000
 Broyden mixing: mesh for mixing (old mesh)
   NGX = 17   NGY = 17   NGZ = 79
  (NGX  = 72   NGY  = 72   NGZ  =320)
  gives a total of  22831 points

 initial charge density was supplied:
 charge density of overlapping atoms calculated
 number of electron      20.0000000 magnetization 
 keeping initial charge density in first step


--------------------------------------------------------------------------------------------------------


 Maximum index for augmentation-charges         2204 (set IRDMAX)


--------------------------------------------------------------------------------------------------------


 First call to EWALD:  gamma=   0.245
 Maximum number of real-space cells 4x 4x 1
 Maximum number of reciprocal cells 2x 2x 7

    FEWALD:  cpu time    0.0011: real time    0.0025


--------------------------------------- Iteration      1(   1)  ---------------------------------------


    POTLOK:  cpu time    0.0466: real time    0.2332
    SETDIJ:  cpu time    0.0055: real time    0.0058
     EDDAV:  cpu time    1.2702: real time    1.2897
       DOS:  cpu time    0.0026: real time    0.0028
    --------------------------------------------
      LOOP:  cpu time    1.3248: real time    1.5315

 eigenvalue-minimisations  :  1792
 total energy-change (2. order) : 0.1432425E+03  (-0.6239479E+03)
 number of electron      20.0000000 magnetization 
 augmentation part       20.0000000 magnetization 

 Free energy of the ion-electron system (eV)
  ---------------------------------------------------
  alpha Z        PSCENC =         9.42878725
  Ewald energy   TEWEN  =      1139.97777190
  -Hartree energ DENC   =     -1741.70938406
  -exchange      EXHF   =         0.00000000
  -V(xc)+E(xc)   XCENC  =      -238.64183823
  PAW double counting   =       799.43158084     -524.17639913
  entropy T*S    EENTRO =        -0.00751068
  eigenvalues    EBANDS =        -3.48842031
  atomic energy  EATOM  =       702.42789710
  Solvation  Ediel_sol  =         0.00000000
  ---------------------------------------------------
  free energy    TOTEN  =       143.24248469 eV

  energy without entropy =      143.24999537  energy(sigma->0) =      143.24624003


--------------------------------------------------------------------------------------------------------




--------------------------------------- Iteration      1(   2)  ---------------------------------------


     EDDAV:  cpu time    1.7497: real time    1.7530
       DOS:  cpu time    0.0026: real time    0.0026
    --------------------------------------------
      LOOP:  cpu time    1.7523: real time    1.7556

 eigenvalue-minimisations  :  2972
 total energy-change (2. order) :-0.1387032E+03  (-0.1348741E+03)
 number of electron      20.0000000 magnetization 
 augmentation part       20.0000000 magnetization 

 Free energy of the ion-electron system (eV)
  ---------------------------------------------------
  alpha Z        PSCENC =         9.42878725
  Ewald energy   TEWEN  =      1139.97777190
  -Hartree energ DENC   =     -1741.70938406
  -exchange      EXHF   =         0.00000000
  -V(xc)+E(xc)   XCENC  =      -238.64183823
  PAW double counting   =       799.43158084     -524.17639913
  entropy T*S    EENTRO =        -0.00170881
  eigenvalues    EBANDS =      -142.19739150
  atomic energy  EATOM  =       702.42789710
  Solvation  Ediel_sol  =         0.00000000
  ---------------------------------------------------
  free energy    TOTEN  =         4.53931537 eV

  energy without entropy =        4.54102418  energy(sigma->0) =        4.54016977


--------------------------------------------------------------------------------------------------------




--------------------------------------- Iteration      1(   3)  ---------------------------------------


     EDDAV:  cpu time    1.4602: real time    1.4637
       DOS:  cpu time    0.0017: real time    0.0017
    --------------------------------------------
      LOOP:  cpu time    1.4618: real time    1.4654

 eigenvalue-minimisations  :  2290
 total energy-change (2. order) :-0.2054576E+02  (-0.2039915E+02)
 number of electron      20.0000000 magnetization 
 augmentation part       20.0000000 magnetization 

 Free energy of the ion-electron system (eV)
  ---------------------------------------------------
  alpha Z        PSCENC =         9.42878725
  Ewald energy   TEWEN  =      1139.97777190
  -Hartree energ DENC   =     -1741.70938406
  -exchange      EXHF   =         0.00000000
  -V(xc)+E(xc)   XCENC  =      -238.64183823
  PAW double counting   =       799.43158084     -524.17639913
  entropy T*S    EENTRO =        -0.00000000
  eigenvalues    EBANDS =      -162.74486396
  atomic energy  EATOM  =       702.42789710
  Solvation  Ediel_sol  =         0.00000000
  ---------------------------------------------------
  free energy    TOTEN  =       -16.00644828 eV

  energy without entropy =      -16.00644828  energy(sigma->0) =      -16.00644828


--------------------------------------------------------------------------------------------------------




--------------------------------------- Iteration      1(   4)  ---------------------------------------


     EDDAV:  cpu time    1.5875: real time    1.5913
       DOS:  cpu time    0.0017: real time    0.0017
    --------------------------------------------
      LOOP:  cpu time    1.5892: real time    1.5930

 eigenvalue-minimisations  :  2570
 total energy-change (2. order) :-0.7793997E+00  (-0.7775404E+00)
 number of electron      20.0000000 magnetization 
 augmentation part       20.0000000 magnetization 

 Free energy of the ion-electron system (eV)
  ---------------------------------------------------
  alpha Z        PSCENC =         9.42878725
  Ewald energy   TEWEN  =      1139.97777190
  -Hartree energ DENC   =     -1741.70938406
  -exchange      EXHF   =         0.00000000
  -V(xc)+E(xc)   XCENC  =      -238.64183823
  PAW double counting   =       799.43158084     -524.17639913
  entropy T*S    EENTRO =        -0.00000000
  eigenvalues    EBANDS =      -163.52426367
  atomic energy  EATOM  =       702.42789710
  Solvation  Ediel_sol  =         0.00000000
  ---------------------------------------------------
  free energy    TOTEN  =       -16.78584799 eV

  energy without entropy =      -16.78584799  energy(sigma->0) =      -16.78584799


--------------------------------------------------------------------------------------------------------




--------------------------------------- Iteration      1(   5)  ---------------------------------------


     EDDAV:  cpu time    1.4630: real time    1.4666
       DOS:  cpu time    0.0018: real time    0.0018
    CHARGE:  cpu time    0.1211: real time    0.1225
    MIXING:  cpu time    0.0019: real time    0.0019
    --------------------------------------------
      LOOP:  cpu time    1.5877: real time    1.5927

 eigenvalue-minimisations  :  2334
 total energy-change (2. order) :-0.1711256E-01  (-0.1709034E-01)
 number of electron      20.0000001 magnetization 
 augmentation part       -4.5209428 magnetization 

 Broyden mixing:
  rms(total) = 0.44789E+00    rms(broyden)= 0.44789E+00
  rms(prec ) = 0.48955E+00
  weight for this iteration     100.00

 Free energy of the ion-electron system (eV)
  ---------------------------------------------------
  alpha Z        PSCENC =         9.42878725
  Ewald energy   TEWEN  =      1139.97777190
  -Hartree energ DENC   =     -1741.70938406
  -exchange      EXHF   =         0.00000000
  -V(xc)+E(xc)   XCENC  =      -238.64183823
  PAW double counting   =       799.43158084     -524.17639913
  entropy T*S    EENTRO =        -0.00000000
  eigenvalues    EBANDS =      -163.54137623
  atomic energy  EATOM  =       702.42789710
  Solvation  Ediel_sol  =         0.00000000
  ---------------------------------------------------
  free energy    TOTEN  =       -16.80296055 eV

  energy without entropy =      -16.80296055  energy(sigma->0) =      -16.80296055


--------------------------------------------------------------------------------------------------------




--------------------------------------- Iteration      1(   6)  ---------------------------------------


    POTLOK:  cpu time    0.0368: real time    0.0368
    SETDIJ:  cpu time    0.0033: real time    0.0045
     EDDAV:  cpu time    1.4163: real time    1.4199
       DOS:  cpu time    0.0018: real time    0.0018
    CHARGE:  cpu time    0.1131: real time    0.1136
    MIXING:  cpu time    0.0012: real time    0.0012
    --------------------------------------------
      LOOP:  cpu time    1.5725: real time    1.5779

 eigenvalue-minimisations  :  2258
 total energy-change (2. order) : 0.5004772E+00  (-0.1288703E+00)
 number of electron      20.0000001 magnetization 
 augmentation part       -4.4879161 magnetization 

 Broyden mixing:
  rms(total) = 0.27421E+00    rms(broyden)= 0.27421E+00
  rms(prec ) = 0.28342E+00
  weight for this iteration     100.00

 eigenvalues of (default mixing * dielectric matrix)
  average eigenvalue GAMMA=   1.7692
  1.7692

 Free energy of the ion-electron system (eV)
  ---------------------------------------------------
  alpha Z        PSCENC =         9.42878725
  Ewald energy   TEWEN  =      1139.97777190
  -Hartree energ DENC   =     -1749.62197924
  -exchange      EXHF   =         0.00000000
  -V(xc)+E(xc)   XCENC  =      -238.15642271
  PAW double counting   =       922.28050457     -647.20303778
  entropy T*S    EENTRO =        -0.00000000
  eigenvalues    EBANDS =      -155.43600443
  atomic energy  EATOM  =       702.42789710
  Solvation  Ediel_sol  =         0.00000000
  ---------------------------------------------------
  free energy    TOTEN  =       -16.30248335 eV

  energy without entropy =      -16.30248335  energy(sigma->0) =      -16.30248335


--------------------------------------------------------------------------------------------------------




--------------------------------------- Iteration      1(   7)  ---------------------------------------


    POTLOK:  cpu time    0.0367: real time    0.0368
    SETDIJ:  cpu time    0.0044: real time    0.0044
     EDDAV:  cpu time    1.4676: real time    1.4712
       DOS:  cpu time    0.0018: real time    0.0018
    CHARGE:  cpu time    0.1130: real time    0.1132
    MIXING:  cpu time    0.0013: real time    0.0015
    --------------------------------------------
      LOOP:  cpu time    1.6248: real time    1.6289

 eigenvalue-minimisations  :  2356
 total energy-change (2. order) : 0.2644737E-01  (-0.3081740E-01)
 number of electron      20.0000001 magnetization 
 augmentation part       -4.4805023 magnetization 

 Broyden mixing:
  rms(total) = 0.10592E+00    rms(broyden)= 0.10592E+00
  rms(prec ) = 0.11129E+00
  weight for this iteration     100.00

 eigenvalues of (default mixing * dielectric matrix)
  average eigenvalue GAMMA=   1.7243
  1.3649  2.0837

 Free energy of the ion-electron system (eV)
  ---------------------------------------------------
  alpha Z        PSCENC =         9.42878725
  Ewald energy   TEWEN  =      1139.97777190
  -Hartree energ DENC   =     -1754.50033907
  -exchange      EXHF   =         0.00000000
  -V(xc)+E(xc)   XCENC  =      -237.83977829
  PAW double counting   =      1058.88347132     -783.93727436
  entropy T*S    EENTRO =        -0.00000000
  eigenvalues    EBANDS =      -150.71657183
  atomic energy  EATOM  =       702.42789710
  Solvation  Ediel_sol  =         0.00000000
  ---------------------------------------------------
  free energy    TOTEN  =       -16.27603598 eV

  energy without entropy =      -16.27603598  energy(sigma->0) =      -16.27603598


--------------------------------------------------------------------------------------------------------




--------------------------------------- Iteration      1(   8)  ---------------------------------------


    POTLOK:  cpu time    0.0365: real time    0.0366
    SETDIJ:  cpu time    0.0030: real time    0.0030
     EDDAV:  cpu time    1.5160: real time    1.5199
       DOS:  cpu time    0.0018: real time    0.0018
    CHARGE:  cpu time    0.1172: real time    0.1173
    MIXING:  cpu time    0.0012: real time    0.0012
    --------------------------------------------
      LOOP:  cpu time    1.6757: real time    1.6799

 eigenvalue-minimisations  :  2516
 total energy-change (2. order) : 0.9327124E-02  (-0.3695424E-02)
 number of electron      20.0000001 magnetization 
 augmentation part       -4.4847052 magnetization 

 Broyden mixing:
  rms(total) = 0.20398E-01    rms(broyden)= 0.20398E-01
  rms(prec ) = 0.27817E-01
  weight for this iteration     100.00

 eigenvalues of (default mixing * dielectric matrix)
  average eigenvalue GAMMA=   1.6944
  2.5171  1.2830  1.2830

 Free energy of the ion-electron system (eV)
  ---------------------------------------------------
  alpha Z        PSCENC =         9.42878725
  Ewald energy   TEWEN  =      1139.97777190
  -Hartree energ DENC   =     -1756.22942017
  -exchange      EXHF   =         0.00000000
  -V(xc)+E(xc)   XCENC  =      -237.75802768
  PAW double counting   =      1125.24014018     -850.33235943
  entropy T*S    EENTRO =        -0.00000000
  eigenvalues    EBANDS =      -149.02149801
  atomic energy  EATOM  =       702.42789710
  Solvation  Ediel_sol  =         0.00000000
  ---------------------------------------------------
  free energy    TOTEN  =       -16.26670886 eV

  energy without entropy =      -16.26670886  energy(sigma->0) =      -16.26670886


--------------------------------------------------------------------------------------------------------




--------------------------------------- Iteration      1(   9)  ---------------------------------------


    POTLOK:  cpu time    0.0365: real time    0.0367
    SETDIJ:  cpu time    0.0031: real time    0.0031
     EDDAV:  cpu time    1.5208: real time    1.5246
       DOS:  cpu time    0.0018: real time    0.0018
    CHARGE:  cpu time    0.1139: real time    0.1141
    MIXING:  cpu time    0.0012: real time    0.0012
    --------------------------------------------
      LOOP:  cpu time    1.6773: real time    1.6814

 eigenvalue-minimisations  :  2452
 total energy-change (2. order) : 0.3678981E-02  (-0.6438308E-03)
 number of electron      20.0000001 magnetization 
 augmentation part       -4.4829018 magnetization 

 Broyden mixing:
  rms(total) = 0.10068E-01    rms(broyden)= 0.10068E-01
  rms(prec ) = 0.15643E-01
  weight for this iteration     100.00

 eigenvalues of (default mixing * dielectric matrix)
  average eigenvalue GAMMA=   1.6970
  2.2089  2.2089  1.1850  1.1850

 Free energy of the ion-electron system (eV)
  ---------------------------------------------------
  alpha Z        PSCENC =         9.42878725
  Ewald energy   TEWEN  =      1139.97777190
  -Hartree energ DENC   =     -1758.17245315
  -exchange      EXHF   =         0.00000000
  -V(xc)+E(xc)   XCENC  =      -237.68568088
  PAW double counting   =      1142.96806761     -868.07170283
  entropy T*S    EENTRO =        -0.00000000
  eigenvalues    EBANDS =      -147.13571688
  atomic energy  EATOM  =       702.42789710
  Solvation  Ediel_sol  =         0.00000000
  ---------------------------------------------------
  free energy    TOTEN  =       -16.26302987 eV

  energy without entropy =      -16.26302987  energy(sigma->0) =      -16.26302987


--------------------------------------------------------------------------------------------------------




--------------------------------------- Iteration      1(  10)  ---------------------------------------


    POTLOK:  cpu time    0.0368: real time    0.0370
    SETDIJ:  cpu time    0.0030: real time    0.0030
     EDDAV:  cpu time    1.5049: real time    1.5086
       DOS:  cpu time    0.0018: real time    0.0018
    CHARGE:  cpu time    0.1131: real time    0.1132
    MIXING:  cpu time    0.0013: real time    0.0013
    --------------------------------------------
      LOOP:  cpu time    1.6609: real time    1.6650

 eigenvalue-minimisations  :  2464
 total energy-change (2. order) : 0.1265429E-02  (-0.1149916E-03)
 number of electron      20.0000001 magnetization 
 augmentation part       -4.4816383 magnetization 

 Broyden mixing:
  rms(total) = 0.50033E-02    rms(broyden)= 0.50033E-02
  rms(prec ) = 0.94004E-02
  weight for this iteration     100.00

 eigenvalues of (default mixing * dielectric matrix)
  average eigenvalue GAMMA=   1.8545
  3.3153  2.5966  1.2286  1.2286  0.9036

 Free energy of the ion-electron system (eV)
  ---------------------------------------------------
  alpha Z        PSCENC =         9.42878725
  Ewald energy   TEWEN  =      1139.97777190
  -Hartree energ DENC   =     -1759.41494757
  -exchange      EXHF   =         0.00000000
  -V(xc)+E(xc)   XCENC  =      -237.67402233
  PAW double counting   =      1133.10743837     -858.20167273
  entropy T*S    EENTRO =        -0.00000000
  eigenvalues    EBANDS =      -145.91301644
  atomic energy  EATOM  =       702.42789710
  Solvation  Ediel_sol  =         0.00000000
  ---------------------------------------------------
  free energy    TOTEN  =       -16.26176445 eV

  energy without entropy =      -16.26176445  energy(sigma->0) =      -16.26176445


--------------------------------------------------------------------------------------------------------




--------------------------------------- Iteration      1(  11)  ---------------------------------------


    POTLOK:  cpu time    0.0371: real time    0.0372
    SETDIJ:  cpu time    0.0031: real time    0.0031
     EDDAV:  cpu time    1.4803: real time    1.4840
       DOS:  cpu time    0.0018: real time    0.0018
    CHARGE:  cpu time    0.1132: real time    0.1133
    MIXING:  cpu time    0.0013: real time    0.0013
    --------------------------------------------
      LOOP:  cpu time    1.6367: real time    1.6407

 eigenvalue-minimisations  :  2440
 total energy-change (2. order) : 0.7720351E-03  (-0.1286311E-03)
 number of electron      20.0000001 magnetization 
 augmentation part       -4.4802592 magnetization 

 Broyden mixing:
  rms(total) = 0.32302E-02    rms(broyden)= 0.32302E-02
  rms(prec ) = 0.49969E-02
  weight for this iteration     100.00

 eigenvalues of (default mixing * dielectric matrix)
  average eigenvalue GAMMA=   1.8097
  3.3800  2.4016  1.8237  1.1847  1.1847  0.8833

 Free energy of the ion-electron system (eV)
  ---------------------------------------------------
  alpha Z        PSCENC =         9.42878725
  Ewald energy   TEWEN  =      1139.97777190
  -Hartree energ DENC   =     -1761.02261434
  -exchange      EXHF   =         0.00000000
  -V(xc)+E(xc)   XCENC  =      -237.64280628
  PAW double counting   =      1134.16740216     -859.26019221
  entropy T*S    EENTRO =        -0.00000000
  eigenvalues    EBANDS =      -144.33723798
  atomic energy  EATOM  =       702.42789710
  Solvation  Ediel_sol  =         0.00000000
  ---------------------------------------------------
  free energy    TOTEN  =       -16.26099241 eV

  energy without entropy =      -16.26099241  energy(sigma->0) =      -16.26099241


--------------------------------------------------------------------------------------------------------




--------------------------------------- Iteration      1(  12)  ---------------------------------------


    POTLOK:  cpu time    0.0370: real time    0.0371
    SETDIJ:  cpu time    0.0031: real time    0.0031
     EDDAV:  cpu time    1.2906: real time    1.2938
       DOS:  cpu time    0.0018: real time    0.0018
    CHARGE:  cpu time    0.1129: real time    0.1131
    MIXING:  cpu time    0.0014: real time    0.0014
    --------------------------------------------
      LOOP:  cpu time    1.4467: real time    1.4503

 eigenvalue-minimisations  :  2020
 total energy-change (2. order) :-0.7870512E-03  (-0.2652587E-04)
 number of electron      20.0000001 magnetization 
 augmentation part       -4.4796540 magnetization 

 Broyden mixing:
  rms(total) = 0.17468E-02    rms(broyden)= 0.17468E-02
  rms(prec ) = 0.27895E-02
  weight for this iteration     100.00

 eigenvalues of (default mixing * dielectric matrix)
  average eigenvalue GAMMA=   2.0627
  4.6162  3.0599  2.4978  1.1967  1.1967  1.0233  0.8485

 Free energy of the ion-electron system (eV)
  ---------------------------------------------------
  alpha Z        PSCENC =         9.42878725
  Ewald energy   TEWEN  =      1139.97777190
  -Hartree energ DENC   =     -1761.64719928
  -exchange      EXHF   =         0.00000000
  -V(xc)+E(xc)   XCENC  =      -237.63339709
  PAW double counting   =      1135.88289255     -860.97810718
  entropy T*S    EENTRO =        -0.00000000
  eigenvalues    EBANDS =      -143.72042470
  atomic energy  EATOM  =       702.42789710
  Solvation  Ediel_sol  =         0.00000000
  ---------------------------------------------------
  free energy    TOTEN  =       -16.26177946 eV

  energy without entropy =      -16.26177946  energy(sigma->0) =      -16.26177946


--------------------------------------------------------------------------------------------------------




--------------------------------------- Iteration      1(  13)  ---------------------------------------


    POTLOK:  cpu time    0.0374: real time    0.0376
    SETDIJ:  cpu time    0.0031: real time    0.0031
     EDDAV:  cpu time    1.3383: real time    1.3417
       DOS:  cpu time    0.0018: real time    0.0018
    CHARGE:  cpu time    0.1137: real time    0.1138
    MIXING:  cpu time    0.0015: real time    0.0014
    --------------------------------------------
      LOOP:  cpu time    1.4957: real time    1.4995

 eigenvalue-minimisations  :  2122
 total energy-change (2. order) :-0.4589256E-03  (-0.8127532E-05)
 number of electron      20.0000001 magnetization 
 augmentation part       -4.4794174 magnetization 

 Broyden mixing:
  rms(total) = 0.10822E-02    rms(broyden)= 0.10822E-02
  rms(prec ) = 0.14723E-02
  weight for this iteration     100.00

 eigenvalues of (default mixing * dielectric matrix)
  average eigenvalue GAMMA=   2.2316
  5.6117  3.3145  2.5155  2.1258  1.1551  1.1551  1.0680  0.9071

 Free energy of the ion-electron system (eV)
  ---------------------------------------------------
  alpha Z        PSCENC =         9.42878725
  Ewald energy   TEWEN  =      1139.97777190
  -Hartree energ DENC   =     -1762.08718784
  -exchange      EXHF   =         0.00000000
  -V(xc)+E(xc)   XCENC  =      -237.63153435
  PAW double counting   =      1134.79973285     -859.89388376
  entropy T*S    EENTRO =        -0.00000000
  eigenvalues    EBANDS =      -143.28382153
  atomic energy  EATOM  =       702.42789710
  Solvation  Ediel_sol  =         0.00000000
  ---------------------------------------------------
  free energy    TOTEN  =       -16.26223839 eV

  energy without entropy =      -16.26223839  energy(sigma->0) =      -16.26223839


--------------------------------------------------------------------------------------------------------




--------------------------------------- Iteration      1(  14)  ---------------------------------------


    POTLOK:  cpu time    0.0382: real time    0.0384
    SETDIJ:  cpu time    0.0031: real time    0.0031
     EDDAV:  cpu time    1.3617: real time    1.3651
       DOS:  cpu time    0.0018: real time    0.0018
    CHARGE:  cpu time    0.1128: real time    0.1130
    MIXING:  cpu time    0.0014: real time    0.0014
    --------------------------------------------
      LOOP:  cpu time    1.5191: real time    1.5228

 eigenvalue-minimisations  :  2176
 total energy-change (2. order) :-0.2690185E-03  (-0.4047766E-05)
 number of electron      20.0000001 magnetization 
 augmentation part       -4.4793824 magnetization 

 Broyden mixing:
  rms(total) = 0.39573E-03    rms(broyden)= 0.39573E-03
  rms(prec ) = 0.61350E-03
  weight for this iteration     100.00

 eigenvalues of (default mixing * dielectric matrix)
  average eigenvalue GAMMA=   2.2432
  6.7503  3.0774  2.5351  2.5351  1.1775  1.1775  1.0341  0.9506  0.9506

 Free energy of the ion-electron system (eV)
  ---------------------------------------------------
  alpha Z        PSCENC =         9.42878725
  Ewald energy   TEWEN  =      1139.97777190
  -Hartree energ DENC   =     -1762.29653877
  -exchange      EXHF   =         0.00000000
  -V(xc)+E(xc)   XCENC  =      -237.63140590
  PAW double counting   =      1135.04250427     -860.13617602
  entropy T*S    EENTRO =        -0.00000000
  eigenvalues    EBANDS =      -143.07534724
  atomic energy  EATOM  =       702.42789710
  Solvation  Ediel_sol  =         0.00000000
  ---------------------------------------------------
  free energy    TOTEN  =       -16.26250741 eV

  energy without entropy =      -16.26250741  energy(sigma->0) =      -16.26250741


--------------------------------------------------------------------------------------------------------




--------------------------------------- Iteration      1(  15)  ---------------------------------------


    POTLOK:  cpu time    0.0383: real time    0.0385
    SETDIJ:  cpu time    0.0031: real time    0.0031
     EDDAV:  cpu time    1.3738: real time    1.3773
       DOS:  cpu time    0.0018: real time    0.0018
    CHARGE:  cpu time    0.1169: real time    0.1170
    MIXING:  cpu time    0.0015: real time    0.0015
    --------------------------------------------
      LOOP:  cpu time    1.5354: real time    1.5392

 eigenvalue-minimisations  :  2164
 total energy-change (2. order) :-0.5597029E-04  (-0.1985961E-06)
 number of electron      20.0000001 magnetization 
 augmentation part       -4.4793988 magnetization 

 Broyden mixing:
  rms(total) = 0.31367E-03    rms(broyden)= 0.31367E-03
  rms(prec ) = 0.49210E-03
  weight for this iteration     100.00

 eigenvalues of (default mixing * dielectric matrix)
  average eigenvalue GAMMA=   2.3511
  6.5470  4.2602  2.7007  2.7007  1.9589  1.1397  1.1397  1.1980  0.9332  0.9332

 Free energy of the ion-electron system (eV)
  ---------------------------------------------------
  alpha Z        PSCENC =         9.42878725
  Ewald energy   TEWEN  =      1139.97777190
  -Hartree energ DENC   =     -1762.31129306
  -exchange      EXHF   =         0.00000000
  -V(xc)+E(xc)   XCENC  =      -237.63179890
  PAW double counting   =      1134.82788753     -859.92139190
  entropy T*S    EENTRO =        -0.00000000
  eigenvalues    EBANDS =      -143.06042330
  atomic energy  EATOM  =       702.42789710
  Solvation  Ediel_sol  =         0.00000000
  ---------------------------------------------------
  free energy    TOTEN  =       -16.26256338 eV

  energy without entropy =      -16.26256338  energy(sigma->0) =      -16.26256338


--------------------------------------------------------------------------------------------------------




--------------------------------------- Iteration      1(  16)  ---------------------------------------


    POTLOK:  cpu time    0.0371: real time    0.0373
    SETDIJ:  cpu time    0.0031: real time    0.0031
     EDDAV:  cpu time    1.3162: real time    1.3195
       DOS:  cpu time    0.0018: real time    0.0018
    CHARGE:  cpu time    0.1136: real time    0.1138
    MIXING:  cpu time    0.0016: real time    0.0016
    --------------------------------------------
      LOOP:  cpu time    1.4734: real time    1.4770

 eigenvalue-minimisations  :  1986
 total energy-change (2. order) :-0.4689096E-04  (-0.8286786E-06)
 number of electron      20.0000001 magnetization 
 augmentation part       -4.4794157 magnetization 

 Broyden mixing:
  rms(total) = 0.12733E-03    rms(broyden)= 0.12733E-03
  rms(prec ) = 0.22698E-03
  weight for this iteration     100.00

 eigenvalues of (default mixing * dielectric matrix)
  average eigenvalue GAMMA=   2.2780
  6.7978  4.5001  2.6532  2.6532  2.2537  1.1525  1.1525  1.1730  0.9307  0.9307
  0.8606

 Free energy of the ion-electron system (eV)
  ---------------------------------------------------
  alpha Z        PSCENC =         9.42878725
  Ewald energy   TEWEN  =      1139.97777190
  -Hartree energ DENC   =     -1762.36180827
  -exchange      EXHF   =         0.00000000
  -V(xc)+E(xc)   XCENC  =      -237.63189966
  PAW double counting   =      1134.69221028     -859.78570755
  entropy T*S    EENTRO =        -0.00000000
  eigenvalues    EBANDS =      -143.00986132
  atomic energy  EATOM  =       702.42789710
  Solvation  Ediel_sol  =         0.00000000
  ---------------------------------------------------
  free energy    TOTEN  =       -16.26261027 eV

  energy without entropy =      -16.26261027  energy(sigma->0) =      -16.26261027


--------------------------------------------------------------------------------------------------------




--------------------------------------- Iteration      1(  17)  ---------------------------------------


    POTLOK:  cpu time    0.0371: real time    0.0372
    SETDIJ:  cpu time    0.0031: real time    0.0031
     EDDAV:  cpu time    1.1992: real time    1.2022
       DOS:  cpu time    0.0018: real time    0.0018
    CHARGE:  cpu time    0.1127: real time    0.1128
    MIXING:  cpu time    0.0017: real time    0.0017
    --------------------------------------------
      LOOP:  cpu time    1.3557: real time    1.3589

 eigenvalue-minimisations  :  1784
 total energy-change (2. order) :-0.2255680E-04  (-0.1112419E-06)
 number of electron      20.0000001 magnetization 
 augmentation part       -4.4793976 magnetization 

 Broyden mixing:
  rms(total) = 0.11955E-03    rms(broyden)= 0.11955E-03
  rms(prec ) = 0.18134E-03
  weight for this iteration     100.00

 eigenvalues of (default mixing * dielectric matrix)
  average eigenvalue GAMMA=   2.4028
  6.9270  5.2834  2.9674  2.9674  2.2976  2.0567  1.1510  1.1510  0.9160  0.9720
  1.0718  1.0718

 Free energy of the ion-electron system (eV)
  ---------------------------------------------------
  alpha Z        PSCENC =         9.42878725
  Ewald energy   TEWEN  =      1139.97777190
  -Hartree energ DENC   =     -1762.37712572
  -exchange      EXHF   =         0.00000000
  -V(xc)+E(xc)   XCENC  =      -237.63175103
  PAW double counting   =      1134.75244567     -859.84604681
  entropy T*S    EENTRO =        -0.00000000
  eigenvalues    EBANDS =      -142.99461118
  atomic energy  EATOM  =       702.42789710
  Solvation  Ediel_sol  =         0.00000000
  ---------------------------------------------------
  free energy    TOTEN  =       -16.26263282 eV

  energy without entropy =      -16.26263282  energy(sigma->0) =      -16.26263282


--------------------------------------------------------------------------------------------------------




--------------------------------------- Iteration      1(  18)  ---------------------------------------


    POTLOK:  cpu time    0.0371: real time    0.0373
    SETDIJ:  cpu time    0.0032: real time    0.0045
     EDDAV:  cpu time    1.3056: real time    1.3089
       DOS:  cpu time    0.0018: real time    0.0018
    CHARGE:  cpu time    0.1127: real time    0.1129
    MIXING:  cpu time    0.0017: real time    0.0017
    --------------------------------------------
      LOOP:  cpu time    1.4621: real time    1.4670

 eigenvalue-minimisations  :  2050
 total energy-change (2. order) :-0.3904346E-04  (-0.4062408E-06)
 number of electron      20.0000001 magnetization 
 augmentation part       -4.4793845 magnetization 

 Broyden mixing:
  rms(total) = 0.62606E-04    rms(broyden)= 0.62606E-04
  rms(prec ) = 0.77758E-04
  weight for this iteration     100.00

 eigenvalues of (default mixing * dielectric matrix)
  average eigenvalue GAMMA=   2.3245
  7.0625  5.4345  2.9671  2.8736  2.4746  2.0492  1.1579  1.1579  1.0910  1.0910
  1.0189  0.9594  0.8807

 Free energy of the ion-electron system (eV)
  ---------------------------------------------------
  alpha Z        PSCENC =         9.42878725
  Ewald energy   TEWEN  =      1139.97777190
  -Hartree energ DENC   =     -1762.40143617
  -exchange      EXHF   =         0.00000000
  -V(xc)+E(xc)   XCENC  =      -237.63172342
  PAW double counting   =      1134.74483684     -859.83841797
  entropy T*S    EENTRO =        -0.00000000
  eigenvalues    EBANDS =      -142.97038740
  atomic energy  EATOM  =       702.42789710
  Solvation  Ediel_sol  =         0.00000000
  ---------------------------------------------------
  free energy    TOTEN  =       -16.26267187 eV

  energy without entropy =      -16.26267187  energy(sigma->0) =      -16.26267187


--------------------------------------------------------------------------------------------------------




--------------------------------------- Iteration      1(  19)  ---------------------------------------


    POTLOK:  cpu time    0.0367: real time    0.0369
    SETDIJ:  cpu time    0.0030: real time    0.0030
     EDDAV:  cpu time    1.2416: real time    1.2447
       DOS:  cpu time    0.0018: real time    0.0018
    CHARGE:  cpu time    0.1126: real time    0.1128
    MIXING:  cpu time    0.0018: real time    0.0018
    --------------------------------------------
      LOOP:  cpu time    1.3976: real time    1.4011

 eigenvalue-minimisations  :  1922
 total energy-change (2. order) :-0.4202954E-05  (-0.1034889E-07)
 number of electron      20.0000001 magnetization 
 augmentation part       -4.4793912 magnetization 

 Broyden mixing:
  rms(total) = 0.39331E-04    rms(broyden)= 0.39331E-04
  rms(prec ) = 0.49552E-04
  weight for this iteration     100.00

 eigenvalues of (default mixing * dielectric matrix)
  average eigenvalue GAMMA=   2.5857
  7.5339  7.5339  3.8748  3.0641  2.4255  2.4255  1.9595  1.1536  1.1536  1.0859
  1.0859  0.9264  0.9390  1.0381

 Free energy of the ion-electron system (eV)
  ---------------------------------------------------
  alpha Z        PSCENC =         9.42878725
  Ewald energy   TEWEN  =      1139.97777190
  -Hartree energ DENC   =     -1762.40029395
  -exchange      EXHF   =         0.00000000
  -V(xc)+E(xc)   XCENC  =      -237.63175749
  PAW double counting   =      1134.78316893     -859.87677002
  entropy T*S    EENTRO =        -0.00000000
  eigenvalues    EBANDS =      -142.97147979
  atomic energy  EATOM  =       702.42789710
  Solvation  Ediel_sol  =         0.00000000
  ---------------------------------------------------
  free energy    TOTEN  =       -16.26267607 eV

  energy without entropy =      -16.26267607  energy(sigma->0) =      -16.26267607


--------------------------------------------------------------------------------------------------------




--------------------------------------- Iteration      1(  20)  ---------------------------------------


    POTLOK:  cpu time    0.0367: real time    0.0369
    SETDIJ:  cpu time    0.0030: real time    0.0030
     EDDAV:  cpu time    1.0724: real time    1.0751
       DOS:  cpu time    0.0018: real time    0.0018
    CHARGE:  cpu time    0.1144: real time    0.1145
    MIXING:  cpu time    0.0019: real time    0.0020
    --------------------------------------------
      LOOP:  cpu time    1.2303: real time    1.2333

 eigenvalue-minimisations  :  1532
 total energy-change (2. order) :-0.7730197E-05  (-0.4561525E-07)
 number of electron      20.0000001 magnetization 
 augmentation part       -4.4793953 magnetization 

 Broyden mixing:
  rms(total) = 0.20288E-04    rms(broyden)= 0.20288E-04
  rms(prec ) = 0.23061E-04
  weight for this iteration     100.00

 eigenvalues of (default mixing * dielectric matrix)
  average eigenvalue GAMMA=   2.5480
  7.7745  7.7745  4.0207  2.9976  2.3332  2.3332  2.1738  1.3238  1.1495  1.1495
  1.2316  0.9092  1.0067  1.0214  1.0214

 Free energy of the ion-electron system (eV)
  ---------------------------------------------------
  alpha Z        PSCENC =         9.42878725
  Ewald energy   TEWEN  =      1139.97777190
  -Hartree energ DENC   =     -1762.40384234
  -exchange      EXHF   =         0.00000000
  -V(xc)+E(xc)   XCENC  =      -237.63177753
  PAW double counting   =      1134.76708385     -859.86065462
  entropy T*S    EENTRO =        -0.00000000
  eigenvalues    EBANDS =      -142.96794941
  atomic energy  EATOM  =       702.42789710
  Solvation  Ediel_sol  =         0.00000000
  ---------------------------------------------------
  free energy    TOTEN  =       -16.26268380 eV

  energy without entropy =      -16.26268380  energy(sigma->0) =      -16.26268380


--------------------------------------------------------------------------------------------------------




--------------------------------------- Iteration      1(  21)  ---------------------------------------


    POTLOK:  cpu time    0.0369: real time    0.0370
    SETDIJ:  cpu time    0.0031: real time    0.0032
     EDDAV:  cpu time    1.1738: real time    1.1767
       DOS:  cpu time    0.0018: real time    0.0018
    --------------------------------------------
      LOOP:  cpu time    1.2156: real time    1.2186

 eigenvalue-minimisations  :  1766
 total energy-change (2. order) :-0.6449112E-06  (-0.3969338E-08)
 number of electron      20.0000001 magnetization 
 augmentation part       -4.4793953 magnetization 

 Free energy of the ion-electron system (eV)
  ---------------------------------------------------
  alpha Z        PSCENC =         9.42878725
  Ewald energy   TEWEN  =      1139.97777190
  -Hartree energ DENC   =     -1762.40550208
  -exchange      EXHF   =         0.00000000
  -V(xc)+E(xc)   XCENC  =      -237.63174868
  PAW double counting   =      1134.76577639     -859.85934807
  entropy T*S    EENTRO =        -0.00000000
  eigenvalues    EBANDS =      -142.96631826
  atomic energy  EATOM  =       702.42789710
  Solvation  Ediel_sol  =         0.00000000
  ---------------------------------------------------
  free energy    TOTEN  =       -16.26268445 eV

  energy without entropy =      -16.26268445  energy(sigma->0) =      -16.26268445


--------------------------------------------------------------------------------------------------------




 average (electrostatic) potential at core
  the test charge radii are     1.4072  1.0808
  (the norm of the test charge is              1.0000)
       1 -51.2958       2 -51.2958       3 -59.9600       4 -59.9600
 
 
 
 E-fermi :  -1.5281     XC(G=0):  -3.3273     alpha+bet : -2.6533


 k-point     1 :       0.0000    0.0000    0.0000
  band No.  band energies     occupation 
      1     -15.2997      2.00000
      2     -14.3202      2.00000
      3      -8.2980      2.00000
      4      -7.3268      2.00000
      5      -5.4205      2.00000
      6      -5.1070      2.00000
      7      -4.9953      2.00000
      8      -3.8667      2.00000
      9      -3.8145      2.00000
     10      -2.6444      2.00000
     11      -0.4833      0.00000
     12       1.3323      0.00000
     13       1.7757      0.00000
     14       1.9230      0.00000

 k-point     2 :       0.0667    0.0000    0.0000
  band No.  band energies     occupation 
      1     -15.2820      2.00000
      2     -14.3184      2.00000
      3      -8.3655      2.00000
      4      -7.4068      2.00000
      5      -5.4213      2.00000
      6      -5.0356      2.00000
      7      -4.9655      2.00000
      8      -3.7945      2.00000
      9      -3.7574      2.00000
     10      -2.6630      2.00000
     11      -0.4715      0.00000
     12       1.3791      0.00000
     13       1.6221      0.00000
     14       1.8879      0.00000

 k-point     3 :       0.1333    0.0000    0.0000
  band No.  band energies     occupation 
      1     -15.2299      2.00000
[...]
  band No.  band energies     occupation 
      1     -14.6084      2.00000
      2     -14.3069      2.00000
      3      -8.7619      2.00000
      4      -8.5053      2.00000
      5      -6.3596      2.00000
      6      -5.2025      2.00000
      7      -5.0153      2.00000
      8      -4.0910      2.00000
      9      -3.9815      2.00000
     10      -3.0818      2.00000
     11       0.1336      0.00000
     12       1.0943      0.00000
     13       1.4415      0.00000
     14       1.7014      0.00000

 k-point    47 :       0.4000    0.3333    0.0000
  band No.  band energies     occupation 
      1     -14.5182      2.00000
      2     -14.3286      2.00000
      3      -8.6731      2.00000
      4      -8.5241      2.00000
      5      -6.3845      2.00000
      6      -5.5938      2.00000
      7      -5.0001      2.00000
      8      -4.3560      2.00000
      9      -3.9423      2.00000
     10      -3.3742      2.00000
     11       0.4937      0.00000
     12       1.2991      0.00000
     13       1.5413      0.00000
     14       2.2487      0.00000

 k-point    48 :       0.4667    0.3333    0.0000
  band No.  band energies     occupation 
      1     -14.4368      2.00000
      2     -14.3720      2.00000
      3      -8.6078      2.00000
      4      -8.5596      2.00000
      5      -6.2431      2.00000
      6      -5.9641      2.00000
      7      -4.8666      2.00000
      8      -4.6364      2.00000
      9      -3.8006      2.00000
     10      -3.6086      2.00000
     11       0.8073      0.00000
     12       1.0789      0.00000
     13       1.9487      0.00000
     14       2.2402      0.00000

 k-point    49 :       0.0000    0.4000    0.0000
  band No.  band energies     occupation 
      1     -14.7451      2.00000
      2     -14.3899      2.00000
      3      -9.2351      2.00000
      4      -8.8760      2.00000
      5      -4.7994      2.00000
      6      -4.3003      2.00000
      7      -4.0874      2.00000
      8      -3.6178      2.00000
      9      -2.8848      2.00000
     10      -2.1873      2.00000
     11      -1.0379      0.00000
     12      -0.0777      0.00000
     13      -0.0161      0.00000
     14       0.3328      0.00000

 k-point    50 :       0.0667    0.4000    0.0000
  band No.  band energies     occupation 
      1     -14.7333      2.00000
      2     -14.3846      2.00000
      3      -9.2093      2.00000
      4      -8.8581      2.00000
      5      -4.7956      2.00000
      6      -4.6375      2.00000
      7      -3.9793      2.00000
      8      -3.7944      2.00000
      9      -2.7175      2.00000
     10      -2.4515      2.00000
     11      -0.7993      0.00000
     12      -0.4156      0.00000
     13       0.1984      0.00000
     14       0.3659      0.00000

 k-point    51 :       0.1333    0.4000    0.0000
  band No.  band energies     occupation 
      1     -14.6992      2.00000
      2     -14.3700      2.00000
      3      -9.1333      2.00000
      4      -8.8067      2.00000
      5      -5.1524      2.00000
      6      -4.7962      2.00000
      7      -4.1820      2.00000
      8      -3.9500      2.00000
      9      -2.9906      2.00000
     10      -2.5563      2.00000
     11      -0.6541      0.00000
     12      -0.2239      0.00000
     13       0.4791      0.00000
     14       0.7444      0.00000

 k-point    52 :       0.2000    0.4000    0.0000
  band No.  band energies     occupation 
      1     -14.6463      2.00000
      2     -14.3498      2.00000
      3      -9.0122      2.00000
      4      -8.7280      2.00000
      5      -5.6504      2.00000
      6      -4.8612      2.00000
      7      -4.5825      2.00000
      8      -3.9959      2.00000
      9      -3.5206      2.00000
     10      -2.7560      2.00000
     11      -0.3943      0.00000
     12       0.4871      0.00000
     13       0.6870      0.00000
     14       1.1893      0.00000

 k-point    53 :       0.2667    0.4000    0.0000
  band No.  band energies     occupation 
      1     -14.5801      2.00000
      2     -14.3300      2.00000
      3      -8.8570      2.00000
      4      -8.6330      2.00000
      5      -6.0696      2.00000
      6      -5.1302      2.00000
      7      -4.8613      2.00000
      8      -4.1314      2.00000
      9      -3.8610      2.00000
     10      -3.1044      2.00000
     11       0.0723      0.00000
     12       1.0278      0.00000
     13       1.1070      0.00000
     14       1.5247      0.00000

 k-point    54 :       0.3333    0.4000    0.0000
  band No.  band energies     occupation 
      1     -14.5081      2.00000
      2     -14.3175      2.00000
      3      -8.6877      2.00000
      4      -8.5372      2.00000
      5      -6.3703      2.00000
      6      -5.5171      2.00000
      7      -5.0848      2.00000
      8      -4.3817      2.00000
      9      -3.9517      2.00000
     10      -3.3779      2.00000
     11       0.4781      0.00000
     12       1.2911      0.00000
     13       1.5076      0.00000
     14       2.1403      0.00000

 k-point    55 :       0.4000    0.4000    0.0000
  band No.  band energies     occupation 
      1     -14.4389      2.00000
      2     -14.3191      2.00000
      3      -8.5371      2.00000
      4      -8.4596      2.00000
      5      -6.5159      2.00000
      6      -5.9204      2.00000
      7      -5.1967      2.00000
      8      -4.6941      2.00000
      9      -3.9040      2.00000
     10      -3.5543      2.00000
     11       0.7880      0.00000
     12       1.2896      0.00000
     13       2.0070      0.00000
     14       2.6170      0.00000

 k-point    56 :       0.4667    0.4000    0.0000
  band No.  band energies     occupation 
      1     -14.3806      2.00000
      2     -14.3398      2.00000
      3      -8.4427      2.00000
      4      -8.4209      2.00000
      5      -6.4784      2.00000
      6      -6.2642      2.00000
      7      -5.1548      2.00000
      8      -4.9741      2.00000
      9      -3.8048      2.00000
     10      -3.6872      2.00000
     11       1.0275      0.00000
     12       1.1975      0.00000
     13       2.3868      0.00000
     14       2.6126      0.00000

 k-point    57 :       0.0000    0.4667    0.0000
  band No.  band energies     occupation 
      1     -14.6025      2.00000
      2     -14.4803      2.00000
      3      -9.2177      2.00000
      4      -9.0944      2.00000
      5      -4.5614      2.00000
      6      -4.3555      2.00000
      7      -3.9143      2.00000
      8      -3.7279      2.00000
      9      -2.6357      2.00000
     10      -2.3170      2.00000
     11      -0.9357      0.00000
     12      -0.5157      0.00000
     13      -0.0835      0.00000
     14       0.1121      0.00000

 k-point    58 :       0.0667    0.4667    0.0000
  band No.  band energies     occupation 
      1     -14.5929      2.00000
      2     -14.4730      2.00000
      3      -9.1911      2.00000
      4      -9.0706      2.00000
      5      -4.5783      2.00000
      6      -4.4761      2.00000
      7      -4.0437      2.00000
      8      -3.9237      2.00000
      9      -2.5597      2.00000
     10      -2.4630      2.00000
     11      -0.8393      0.00000
     12      -0.7244      0.00000
     13       0.2562      0.00000
     14       0.5583      0.00000

 k-point    59 :       0.1333    0.4667    0.0000
  band No.  band energies     occupation 
      1     -14.5653      2.00000
      2     -14.4522      2.00000
      3      -9.1126      2.00000
      4      -9.0006      2.00000
      5      -4.8802      2.00000
      6      -4.6953      2.00000
      7      -4.2712      2.00000
      8      -4.1497      2.00000
      9      -2.8978      2.00000
     10      -2.7000      2.00000
     11      -0.5937      0.00000
     12      -0.3741      0.00000
     13       0.7770      0.00000
     14       0.8523      0.00000

 k-point    60 :       0.2000    0.4667    0.0000
  band No.  band energies     occupation 
      1     -14.5234      2.00000
      2     -14.4215      2.00000
      3      -8.9862      2.00000
      4      -8.8889      2.00000
      5      -5.3753      2.00000
      6      -5.0570      2.00000
      7      -4.4631      2.00000
      8      -4.2312      2.00000
      9      -3.3794      2.00000
     10      -3.0898      2.00000
     11      -0.0860      0.00000
     12       0.2640      0.00000
     13       0.9849      0.00000
     14       1.2071      0.00000

 k-point    61 :       0.2667    0.4667    0.0000
  band No.  band energies     occupation 
      1     -14.4726      2.00000
      2     -14.3868      2.00000
      3      -8.8206      2.00000
      4      -8.7446      2.00000
      5      -5.8322      2.00000
      6      -5.4966      2.00000
      7      -4.6637      2.00000
      8      -4.4029      2.00000
      9      -3.6984      2.00000
     10      -3.4331      2.00000
     11       0.4324      0.00000
     12       0.7904      0.00000
     13       1.3543      0.00000
     14       1.5908      0.00000

 k-point    62 :       0.3333    0.4667    0.0000
  band No.  band energies     occupation 
      1     -14.4204      2.00000
      2     -14.3551      2.00000
      3      -8.6327      2.00000
      4      -8.5835      2.00000
      5      -6.2032      2.00000
      6      -5.8978      2.00000
      7      -4.9507      2.00000
      8      -4.6949      2.00000
      9      -3.8044      2.00000
     10      -3.6102      2.00000
     11       0.7877      0.00000
     12       1.0630      0.00000
     13       1.8795      0.00000
     14       2.1393      0.00000

 k-point    63 :       0.4000    0.4667    0.0000
  band No.  band energies     occupation 
      1     -14.3746      2.00000
      2     -14.3336      2.00000
      3      -8.4554      2.00000
      4      -8.4332      2.00000
      5      -6.4547      2.00000
      6      -6.2312      2.00000
      7      -5.1930      2.00000
      8      -5.0030      2.00000
      9      -3.8024      2.00000
     10      -3.6844      2.00000
     11       1.0214      0.00000
     12       1.1920      0.00000
     13       2.3627      0.00000
     14       2.5832      0.00000

 k-point    64 :       0.4667    0.4667    0.0000
  band No.  band energies     occupation 
      1     -14.3424      2.00000
      2     -14.3284      2.00000
      3      -8.3413      2.00000
      4      -8.3366      2.00000
      5      -6.5495      2.00000
      6      -6.4655      2.00000
      7      -5.2923      2.00000
      8      -5.2217      2.00000
      9      -3.7677      2.00000
     10      -3.7279      2.00000
     11       1.1694      0.00000
     12       1.2271      0.00000
     13       2.6399      0.00000
     14       2.7560      0.00000


--------------------------------------------------------------------------------------------------------


 soft charge-density along one line, spin component           1
         0         1         2         3         4         5         6         7         8         9
 total charge-density along one line
 
 pseudopotential strength for first ion, spin component:           1
 30.099 -23.445  -0.000  -0.089   0.039  -0.000  -0.141   0.061
-23.445  28.123   0.000   0.051  -0.022   0.000   0.082  -0.035
 -0.000   0.000   6.334   0.000  -0.000   9.800   0.000  -0.000
 -0.089   0.051   0.000   6.332   0.002   0.000   9.795   0.003
  0.039  -0.022  -0.000   0.002   6.334  -0.000   0.003   9.799
 -0.000   0.000   9.800   0.000  -0.000  15.231   0.000  -0.000
 -0.141   0.082   0.000   9.795   0.003   0.000  15.224   0.004
  0.061  -0.035  -0.000   0.003   9.799  -0.000   0.004  15.230
 -0.000   0.000   0.008   0.000  -0.000   0.012   0.000  -0.000
  0.000  -0.000  -0.020  -0.000   0.000  -0.031  -0.000   0.000
 -0.003   0.004  -0.000  -0.023  -0.005  -0.000  -0.035  -0.007
  0.003  -0.002   0.000   0.009  -0.020   0.000   0.014  -0.031
 -0.001   0.000   0.000  -0.000   0.009   0.000  -0.000   0.015
 total augmentation occupancy for first ion, spin component:           1
  2.024  -0.015   0.000   0.239  -0.099   0.000  -0.043   0.018   0.000   0.000   0.022   0.002  -0.000
 -0.015   0.009  -0.000  -0.073   0.030   0.000   0.019  -0.007   0.000   0.000  -0.002   0.001  -0.001
  0.000  -0.000   1.507   0.000  -0.000  -0.405  -0.000   0.000   0.138  -0.044  -0.000   0.000  -0.000
  0.239  -0.073   0.000   1.842   0.002  -0.000  -0.485  -0.016   0.000   0.000  -0.266  -0.022  -0.001
 -0.099   0.030  -0.000   0.002   1.487  -0.000  -0.017  -0.392   0.000   0.000  -0.089  -0.047  -0.007
  0.000  -0.000  -0.405   0.000  -0.000   0.117   0.000   0.000  -0.037   0.012   0.000   0.000   0.000
 -0.043   0.019   0.000  -0.485  -0.017   0.000   0.140   0.008  -0.000  -0.000   0.074   0.006   0.000
  0.018  -0.007   0.000  -0.016  -0.392  -0.000   0.008   0.112  -0.000  -0.000   0.024   0.013   0.002
 -0.000   0.000   0.138   0.000   0.000  -0.037   0.000   0.000   0.075   0.000   0.000   0.000  -0.000
  0.000   0.000  -0.044   0.000   0.000   0.012   0.000   0.000   0.000   0.021   0.000   0.000   0.000
  0.022  -0.002  -0.000  -0.266  -0.089   0.000   0.074   0.024   0.000   0.000   0.077   0.007   0.002
  0.002   0.001  -0.000  -0.022  -0.047  -0.000   0.006   0.013  -0.000   0.000   0.007   0.022   0.001
 -0.000  -0.001   0.000  -0.001  -0.007   0.000   0.000   0.002   0.000   0.000   0.002   0.001   0.017


------------------------ aborting loop because EDIFF is reached ----------------------------------------


    CHARGE:  cpu time    0.1364: real time    0.1436
    FORLOC:  cpu time    0.0017: real time    0.0017
    FORNL :  cpu time    0.1851: real time    0.1853
    STRESS:  cpu time    0.3576: real time    0.3582
    FORCOR:  cpu time    0.0386: real time    0.0387
    FORHAR:  cpu time    0.0100: real time    0.0100
    MIXING:  cpu time    0.0009: real time    0.0009
    OFIELD:  cpu time    0.0000: real time    0.0000

  FORCE on cell =-STRESS in cart. coord.  units (eV):
  Direction    XX          YY          ZZ          XY          YZ          ZX
  --------------------------------------------------------------------------------------
  Alpha Z     9.42879     9.42879     9.42879
  Ewald    1592.56581  1598.15668 -2049.08223    -0.00000    -0.00000     0.00000
  Hartree  1714.57943  1716.75342 -1667.48112    -0.00000    -0.00000     0.00000
  E(xc)     -77.63646   -77.65489   -78.84772    -0.00000    -0.00000     0.00000
  Local   -3559.84468 -3566.90543  3461.79469    -0.00000    -0.00000     0.00000
  n-local   162.44142   162.67203   167.16090    -0.34209     0.00000     0.00000
  augment   -31.87660   -31.80925   -32.80155     0.00000    -0.00000     0.00000
  Kinetic   190.14436   189.19657   189.82543     5.40753    -0.00000    -0.00000
  Fock        0.00000     0.00000     0.00000     0.00000     0.00000     0.00000
  -------------------------------------------------------------------------------------
  Total      -0.19794    -0.16208    -0.00282     0.00000     0.00000     0.00000
  in kB      -0.83624    -0.68473    -0.01190     0.00000     0.00000     0.00000
  external pressure =       -0.51 kB  Pullay stress =        0.00 kB


 VOLUME and BASIS-vectors are now :
 -----------------------------------------------------------------------------
  energy-cutoff  :      600.00
  volume of cell :      379.23
      direct lattice vectors                 reciprocal lattice vectors
     4.417415619  0.000000000  0.000000000     0.226376707  0.000000000  0.000000000
     0.000000000  4.292477857  0.000000000     0.000000000  0.232965675  0.000000000
     0.000000000  0.000000000 20.000000000     0.000000000  0.000000000  0.050000000

  length of vectors
     4.417415619  4.292477857 20.000000000     0.226376707  0.232965675  0.050000000


 FORCES acting on ions
    electron-ion (+dipol)            ewald-force                    non-local-force                 convergence-correction
 -----------------------------------------------------------------------------------------------
   0.486E+01 -.243E-12 -.143E+03   -.654E+01 -.599E-15 0.147E+03   0.168E+01 0.000E+00 -.383E+01   -.643E-04 -.731E-14 -.192E-03
   0.486E+01 -.596E-13 0.143E+03   -.654E+01 -.136E-14 -.147E+03   0.168E+01 0.000E+00 0.383E+01   -.643E-04 0.104E-14 0.192E-03
   -.603E+01 0.178E-13 -.204E+03   0.654E+01 0.521E-15 0.206E+03   -.508E+00 0.000E+00 -.204E+01   0.119E-02 0.920E-14 -.867E-03
   -.603E+01 0.426E-13 0.204E+03   0.654E+01 0.325E-15 -.206E+03   -.508E+00 0.000E+00 0.204E+01   0.119E-02 -.133E-14 0.867E-03
 -----------------------------------------------------------------------------------------------
   -.234E+01 -.243E-12 -.797E-06   0.266E-14 -.111E-14 0.000E+00   0.234E+01 0.000E+00 0.000E+00   0.225E-02 0.160E-14 -.136E-09
 
 
 POSITION                                       TOTAL-FORCE (eV/Angst)
 -----------------------------------------------------------------------------------
      2.58267      3.21936     11.37593        -0.000198      0.000000      0.000078
      0.37396      1.07312      8.62407        -0.000198      0.000000     -0.000078
      0.13008      1.07312     11.33759         0.000198     -0.000000     -0.000590
      2.33879      3.21936      8.66241         0.000198     -0.000000      0.000590
 -----------------------------------------------------------------------------------
    total drift:                                0.000137     -0.000000     -0.000001


--------------------------------------------------------------------------------------------------------



  FREE ENERGIE OF THE ION-ELECTRON SYSTEM (eV)
  ---------------------------------------------------
  free  energy   TOTEN  =       -16.26358897 eV

  energy  without entropy=      -16.26358897  energy(sigma->0) =      -16.26358897
 
 d Force = 0.7128192E-06[-0.326E-06, 0.175E-05]  d Energy = 0.6971353E-06 0.157E-07
 d Force = 0.1443594E+00[ 0.144E+00, 0.144E+00]  d Ewald  = 0.1443594E+00-0.134E-10


--------------------------------------------------------------------------------------------------------


    POTLOK:  cpu time    0.0400: real time    0.0401


--------------------------------------------------------------------------------------------------------


 Conjugate gradient step on ions:
 trial-energy change:   -0.000001  1 .order   -0.000001   -0.000002    0.000000
  (g-gl).g = 0.643E-06      g.g   = 0.575E-06  gl.gl    = 0.112E-05
 g(Force)  = 0.575E-06   g(Stress)= 0.000E+00 ortho     =-0.739E-07
 gamma     =   0.57572
 trial     =   3.28927
 opt step  =   2.77327  (harmonic =   2.77327) maximal distance =0.00024847
 next E    =   -16.263589   (d E  =  -0.00000)


--------------------------------------------------------------------------------------------------------


  
 reached required accuracy - stopping structural energy minimisation
 writing wavefunctions
     LOOP+:  cpu time    5.4972: real time    5.7070
    4ORBIT:  cpu time    0.0000: real time    0.0000

 total amount of memory used by VASP MPI-rank0    52185. kBytes
=======================================================================

   base      :      30000. kBytes
   nonl-proj :       7223. kBytes
   fftplans  :       2678. kBytes
   grid      :       4349. kBytes
   one-center:          8. kBytes
   wavefun   :       7927. kBytes
 
  
  
 General timing and accounting informations for this job:
 ========================================================
  
                  Total CPU time used (sec):      116.714
                            User time (sec):      115.963
                          System time (sec):        0.751
                         Elapsed time (sec):      124.604
  
                   Maximum memory used (kb):      201088.
                   Average memory used (kb):           0.
  
                          Minor page faults:       118649
                          Major page faults:          158
                 Voluntary context switches:         7621
