 vasp.5.4.4.18Apr17-6-g9f103f2a35 (build Oct 01 2024 10:11:53) complex          
  
 executed on              Shaheen date 2025.02.19  15:18:42
 running on  192 total cores
 distrk:  each k-point on  192 cores,    1 groups
 distr:  one band on NCORES_PER_BAND=  24 cores,    8 groups


--------------------------------------------------------------------------------------------------------


 INCAR:
 POTCAR:    PAW_PBE Mo 08Apr2002                  
 POTCAR:    PAW_PBE S 06Sep2000                   
 POTCAR:    PAW_PBE Te 08Apr2002                  
 POTCAR:    PAW_PBE Mo 08Apr2002                  
   VRHFIN =Mo: 4p5s4d                                                           
   LEXCH  = PE                                                                  
   EATOM  =   217.5176 eV,   15.9871 Ry                                         
                                                                                
   TITEL  = PAW_PBE Mo 08Apr2002                                                
   LULTRA =        F    use ultrasoft PP ?                                      
   IUNSCR =        1    unscreen: 0-lin 1-nonlin 2-no                           
   RPACOR =    2.200    partial core radius                                     
   POMASS =   95.940; ZVAL   =    6.000    mass and valenz                      
   RCORE  =    2.750    outmost cutoff radius                                   
   RWIGS  =    2.750; RWIGS  =    1.455    wigner-seitz radius (au A)           
   ENMAX  =  224.584; ENMIN  =  168.438 eV                                      
   RCLOC  =    2.111    cutoff for local pot                                    
   LCOR   =        T    correct aug charges                                     
   LPAW   =        T    paw PP                                                  
   EAUG   =  345.278                                                            
   DEXC   =    0.000                                                            
   RMAX   =    2.821    core radius for proj-oper                               
   RAUG   =    1.300    factor for augmentation sphere                          
   RDEP   =    2.815    radius for radial grids                                 
   RDEPT  =    2.211    core radius for aug-charge                              
                                                                                
   Atomic configuration                                                         
   12 entries                                                                   
     n  l   j            E        occ.                                          
     1  0  0.50    -19819.0341   2.0000                                         
     2  0  0.50     -2799.0127   2.0000                                         
     2  1  1.50     -2502.0276   6.0000                                         
     3  0  0.50      -476.4448   2.0000                                         
     3  1  1.50      -379.1496   6.0000                                         
     3  2  2.50      -220.9367  10.0000                                         
     4  0  0.50       -64.3378   2.0000                                         
     4  1  1.50       -38.4773   6.0000                                         
     4  2  2.50        -3.7535   5.0000                                         
     5  0  0.50        -4.0862   1.0000                                         
     5  1  0.50        -2.7701   0.0000                                         
     4  3  2.50        -1.3606   0.0000                                         
   Description                                                                  
     l       E           TYP  RCUT    TYP  RCUT                                 
     2     -3.7534765     23  2.500                                             
     2     -5.1140591     23  2.500                                             
     0     -4.0861560     23  2.600                                             
     0     13.6058260     23  2.600                                             
     1      5.4423304     23  2.750                                             
     1     27.2116520     23  2.750                                             
  local pseudopotential read in
  partial core-charges read in
  partial kinetic energy density read in
  atomic valenz-charges read in
  non local Contribution for L=           2  read in
    real space projection operators read in
  non local Contribution for L=           2  read in
    real space projection operators read in
  non local Contribution for L=           0  read in
    real space projection operators read in
  non local Contribution for L=           0  read in
    real space projection operators read in
  non local Contribution for L=           1  read in
    real space projection operators read in
  non local Contribution for L=           1  read in
    real space projection operators read in
    PAW grid and wavefunctions read in
 
   number of l-projection  operators is LMAX  =           6
   number of lm-projection operators is LMMAX =          18
 
 POTCAR:    PAW_PBE S 06Sep2000                   
   VRHFIN =S : s2p4                                                             
   LEXCH  = PE                                                                  
   EATOM  =   276.8230 eV,   20.3459 Ry                                         
                                                                                
   TITEL  = PAW_PBE S 06Sep2000                                                 
   LULTRA =        F    use ultrasoft PP ?                                      
   IUNSCR =        1    unscreen: 0-lin 1-nonlin 2-no                           
   RPACOR =    1.500    partial core radius                                     
   POMASS =   32.066; ZVAL   =    6.000    mass and valenz                      
   RCORE  =    1.900    outmost cutoff radius                                   
   RWIGS  =    2.200; RWIGS  =    1.164    wigner-seitz radius (au A)           
   ENMAX  =  258.689; ENMIN  =  194.016 eV                                      
   ICORE  =        2    local potential                                         
   LCOR   =        T    correct aug charges                                     
   LPAW   =        T    paw PP                                                  
   EAUG   =  335.092                                                            
   DEXC   =    0.000                                                            
   RMAX   =    1.942    core radius for proj-oper                               
   RAUG   =    1.300    factor for augmentation sphere                          
   RDEP   =    1.954    radius for radial grids                                 
   RDEPT  =    1.744    core radius for aug-charge                              
                                                                                
   Atomic configuration                                                         
    6 entries                                                                   
     n  l   j            E        occ.                                          
     1  0  0.50     -2405.8406   2.0000                                         
     2  0  0.50      -211.7007   2.0000                                         
     2  1  1.50      -156.4958   6.0000                                         
     3  0  0.50       -17.2562   2.0000                                         
     3  1  0.50        -7.0085   4.0000                                         
     3  2  1.50        -6.8029   0.0000                                         
   Description                                                                  
     l       E           TYP  RCUT    TYP  RCUT                                 
     0    -17.2561641     23  1.900                                             
     0    -15.8743224     23  1.900                                             
     1     -7.0085400     23  1.900                                             
     1     -2.7779785     23  1.900                                             
     2     -6.8029130     23  1.900                                             
  local pseudopotential read in
  partial core-charges read in
  partial kinetic energy density read in
  atomic valenz-charges read in
  non local Contribution for L=           0  read in
    real space projection operators read in
  non local Contribution for L=           0  read in
    real space projection operators read in
  non local Contribution for L=           1  read in
    real space projection operators read in
  non local Contribution for L=           1  read in
    real space projection operators read in
    PAW grid and wavefunctions read in
 
   number of l-projection  operators is LMAX  =           4
   number of lm-projection operators is LMMAX =           8
 
 POTCAR:    PAW_PBE Te 08Apr2002                  
   VRHFIN =Te: s2p4                                                             
   LEXCH  = PE                                                                  
   EATOM  =   223.2721 eV,   16.4100 Ry                                         
                                                                                
   TITEL  = PAW_PBE Te 08Apr2002                                                
   LULTRA =        F    use ultrasoft PP ?                                      
   IUNSCR =        1    unscreen: 0-lin 1-nonlin 2-no                           
   RPACOR =    2.200    partial core radius                                     
   POMASS =  127.600; ZVAL   =    6.000    mass and valenz                      
   RCORE  =    2.300    outmost cutoff radius                                   
   RWIGS  =    2.900; RWIGS  =    1.535    wigner-seitz radius (au A)           
   ENMAX  =  174.982; ENMIN  =  131.236 eV                                      
   ICORE  =        3    local potential                                         
   LCOR   =        T    correct aug charges                                     
   LPAW   =        T    paw PP                                                  
   EAUG   =  368.792                                                            
   DEXC   =    0.000                                                            
   RMAX   =    2.345    core radius for proj-oper                               
   RAUG   =    1.300    factor for augmentation sphere                          
   RDEP   =    2.397    radius for radial grids                                 
   RDEPT  =    2.174    core radius for aug-charge                              
                                                                                
   Atomic configuration                                                         
   13 entries                                                                   
     n  l   j            E        occ.                                          
     1  0  0.50    -31621.2075   2.0000                                         
     2  0  0.50     -4848.7941   2.0000                                         
     2  1  1.50     -4352.1960   6.0000                                         
     3  0  0.50      -964.9612   2.0000                                         
     3  1  1.50      -803.6179   6.0000                                         
     3  2  2.50      -559.8710  10.0000                                         
     4  0  0.50      -164.3522   2.0000                                         
     4  1  1.50      -114.3756   6.0000                                         
     4  2  2.50       -41.6483  10.0000                                         
     5  0  0.50       -15.1072   2.0000                                         
     5  1  0.50        -5.9526   4.0000                                         
     5  2  1.50        -5.4423   0.0000                                         
     4  3  2.50        -5.4423   0.0000                                         
   Description                                                                  
     l       E           TYP  RCUT    TYP  RCUT                                 
     0    -15.1072389     23  2.300                                             
     0    -16.4678215     23  2.300                                             
     1     -5.9526306     23  2.300                                             
     1     -2.4873968     23  2.300                                             
     2     -5.4423304     23  2.300                                             
     3     -1.3605826     23  2.300                                             
  local pseudopotential read in
  partial core-charges read in
  partial kinetic energy density read in
  atomic valenz-charges read in
  non local Contribution for L=           0  read in
    real space projection operators read in
  non local Contribution for L=           0  read in
    real space projection operators read in
  non local Contribution for L=           1  read in
    real space projection operators read in
  non local Contribution for L=           1  read in
    real space projection operators read in
  non local Contribution for L=           2  read in
    real space projection operators read in
    PAW grid and wavefunctions read in
 
   number of l-projection  operators is LMAX  =           5
   number of lm-projection operators is LMMAX =          13
 
  PAW_PBE Mo 08Apr2002                  :
 energy of atom  1       EATOM= -217.5176
 kinetic energy error for atom=    0.0005 (will be added to EATOM!!)
  PAW_PBE S 06Sep2000                   :
 energy of atom  2       EATOM= -276.8230
 kinetic energy error for atom=    0.0009 (will be added to EATOM!!)
  PAW_PBE Te 08Apr2002                  :
 energy of atom  3       EATOM= -223.2721
 kinetic energy error for atom=    0.0004 (will be added to EATOM!!)
 
 
 POSCAR: Generated by VASPKIT code               
  positions in direct lattice
  velocities in cartesian coordinates
 exchange correlation table for  LEXCH =        8
   RHO(1)=    0.500       N(1)  =     2000
   RHO(2)=  100.500       N(2)  =     4000
 


--------------------------------------------------------------------------------------------------------


 ion  position               nearest neighbor table
   1  0.500  0.167  0.507-   4 2.44   4 2.44   3 2.44   6 2.72   6 2.72   5 2.72   2 3.37   2 3.37
                             2 3.37   2 3.37
   2  0.000  0.667  0.507-   3 2.44   3 2.44   4 2.44   5 2.72   5 2.72   6 2.72   1 3.37   1 3.37
                             1 3.37   1 3.37
   3  0.500  0.833  0.580-   2 2.44   2 2.44   1 2.44
   4  0.000  0.333  0.580-   1 2.44   1 2.44   2 2.44
   5  0.500  0.833  0.413-   2 2.72   2 2.72   1 2.72   6 3.37   6 3.37   6 3.37   6 3.37
   6  0.000  0.333  0.413-   1 2.72   1 2.72   2 2.72   5 3.37   5 3.37   5 3.37   5 3.37
 

IMPORTANT INFORMATION: All symmetrisations will be switched off!
NOSYMM: (Re-)initialisation of all symmetry stuff for point group C_1.

 
 
 KPOINTS: K-Spacing Value to Generate K-Mesh: 0.01

Automatic generation of k-mesh.
Space group operators:
 irot       det(A)        alpha          n_x          n_y          n_z        tau_x        tau_y        tau_z
    1     1.000000     0.000000     1.000000     0.000000     0.000000     0.000000     0.000000     0.000000
 
 Subroutine IBZKPT returns following result:
 ===========================================
 
 Found    105 irreducible k-points:
 
 Following reciprocal coordinates:
            Coordinates               Weight
  0.000000  0.000000  0.000000      1.000000
  0.052632  0.000000  0.000000      2.000000
  0.105263  0.000000  0.000000      2.000000
  0.157895  0.000000  0.000000      2.000000
  0.210526  0.000000  0.000000      2.000000
  0.263158  0.000000  0.000000      2.000000
  0.315789  0.000000  0.000000      2.000000
  0.368421  0.000000  0.000000      2.000000
  0.421053  0.000000  0.000000      2.000000
  0.473684  0.000000  0.000000      2.000000
  0.000000  0.090909  0.000000      2.000000
  0.052632  0.090909  0.000000      2.000000
  0.105263  0.090909  0.000000      2.000000
  0.157895  0.090909  0.000000      2.000000
  0.210526  0.090909  0.000000      2.000000
  0.263158  0.090909  0.000000      2.000000
  0.315789  0.090909  0.000000      2.000000
  0.368421  0.090909  0.000000      2.000000
  0.421053  0.090909  0.000000      2.000000
  0.473684  0.090909  0.000000      2.000000
 -0.473684  0.090909  0.000000      2.000000
 -0.421053  0.090909  0.000000      2.000000
 -0.368421  0.090909  0.000000      2.000000
 -0.315789  0.090909  0.000000      2.000000
 -0.263158  0.090909  0.000000      2.000000
 -0.210526  0.090909  0.000000      2.000000
 -0.157895  0.090909  0.000000      2.000000
 -0.105263  0.090909  0.000000      2.000000
 -0.052632  0.090909  0.000000      2.000000
  0.000000  0.181818  0.000000      2.000000
  0.052632  0.181818  0.000000      2.000000
  0.105263  0.181818  0.000000      2.000000
  0.157895  0.181818  0.000000      2.000000
  0.210526  0.181818  0.000000      2.000000
  0.263158  0.181818  0.000000      2.000000
  0.315789  0.181818  0.000000      2.000000
  0.368421  0.181818  0.000000      2.000000
  0.421053  0.181818  0.000000      2.000000
  0.473684  0.181818  0.000000      2.000000
 -0.473684  0.181818  0.000000      2.000000
 -0.421053  0.181818  0.000000      2.000000
 -0.368421  0.181818  0.000000      2.000000
 -0.315789  0.181818  0.000000      2.000000
 -0.263158  0.181818  0.000000      2.000000
 -0.210526  0.181818  0.000000      2.000000
 -0.157895  0.181818  0.000000      2.000000
 -0.105263  0.181818  0.000000      2.000000
 -0.052632  0.181818  0.000000      2.000000
  0.000000  0.272727  0.000000      2.000000
  0.052632  0.272727  0.000000      2.000000
  0.105263  0.272727  0.000000      2.000000
  0.157895  0.272727  0.000000      2.000000
  0.210526  0.272727  0.000000      2.000000
  0.263158  0.272727  0.000000      2.000000
  0.315789  0.272727  0.000000      2.000000
  0.368421  0.272727  0.000000      2.000000
  0.421053  0.272727  0.000000      2.000000
  0.473684  0.272727  0.000000      2.000000
 -0.473684  0.272727  0.000000      2.000000
 -0.421053  0.272727  0.000000      2.000000
 -0.368421  0.272727  0.000000      2.000000
 -0.315789  0.272727  0.000000      2.000000
 -0.263158  0.272727  0.000000      2.000000
 -0.210526  0.272727  0.000000      2.000000
 -0.157895  0.272727  0.000000      2.000000
 -0.105263  0.272727  0.000000      2.000000
 -0.052632  0.272727  0.000000      2.000000
  0.000000  0.363636  0.000000      2.000000
  0.052632  0.363636  0.000000      2.000000
  0.105263  0.363636  0.000000      2.000000
  0.157895  0.363636  0.000000      2.000000
  0.210526  0.363636  0.000000      2.000000
  0.263158  0.363636  0.000000      2.000000
  0.315789  0.363636  0.000000      2.000000
  0.368421  0.363636  0.000000      2.000000
  0.421053  0.363636  0.000000      2.000000
  0.473684  0.363636  0.000000      2.000000
 -0.473684  0.363636  0.000000      2.000000
 -0.421053  0.363636  0.000000      2.000000
 -0.368421  0.363636  0.000000      2.000000
 -0.315789  0.363636  0.000000      2.000000
 -0.263158  0.363636  0.000000      2.000000
 -0.210526  0.363636  0.000000      2.000000
 -0.157895  0.363636  0.000000      2.000000
 -0.105263  0.363636  0.000000      2.000000
 -0.052632  0.363636  0.000000      2.000000
  0.000000  0.454545  0.000000      2.000000
  0.052632  0.454545  0.000000      2.000000
  0.105263  0.454545  0.000000      2.000000
  0.157895  0.454545  0.000000      2.000000
  0.210526  0.454545  0.000000      2.000000
  0.263158  0.454545  0.000000      2.000000
  0.315789  0.454545  0.000000      2.000000
  0.368421  0.454545  0.000000      2.000000
  0.421053  0.454545  0.000000      2.000000
  0.473684  0.454545  0.000000      2.000000
 -0.473684  0.454545  0.000000      2.000000
 -0.421053  0.454545  0.000000      2.000000
 -0.368421  0.454545  0.000000      2.000000
 -0.315789  0.454545  0.000000      2.000000
 -0.263158  0.454545  0.000000      2.000000
 -0.210526  0.454545  0.000000      2.000000
 -0.157895  0.454545  0.000000      2.000000
 -0.105263  0.454545  0.000000      2.000000
 -0.052632  0.454545  0.000000      2.000000
 
 Following cartesian coordinates:
            Coordinates               Weight
  0.000000  0.000000  0.000000      1.000000
  0.015647  0.000000  0.000000      2.000000
  0.031295  0.000000  0.000000      2.000000
  0.046942  0.000000  0.000000      2.000000
  0.062590  0.000000  0.000000      2.000000
  0.078237  0.000000  0.000000      2.000000
  0.093884  0.000000  0.000000      2.000000
  0.109532  0.000000  0.000000      2.000000
  0.125179  0.000000  0.000000      2.000000
  0.140827  0.000000  0.000000      2.000000
  0.000000  0.015542  0.000000      2.000000
  0.015647  0.015542  0.000000      2.000000
  0.031295  0.015542  0.000000      2.000000
  0.046942  0.015542  0.000000      2.000000
  0.062590  0.015542  0.000000      2.000000
  0.078237  0.015542  0.000000      2.000000
  0.093884  0.015542  0.000000      2.000000
  0.109532  0.015542  0.000000      2.000000
  0.125179  0.015542  0.000000      2.000000
  0.140827  0.015542  0.000000      2.000000
 -0.140827  0.015542  0.000000      2.000000
 -0.125179  0.015542  0.000000      2.000000
 -0.109532  0.015542  0.000000      2.000000
 -0.093884  0.015542  0.000000      2.000000
 -0.078237  0.015542  0.000000      2.000000
 -0.062590  0.015542  0.000000      2.000000
 -0.046942  0.015542  0.000000      2.000000
 -0.031295  0.015542  0.000000      2.000000
 -0.015647  0.015542  0.000000      2.000000
  0.000000  0.031084  0.000000      2.000000
  0.015647  0.031084  0.000000      2.000000
  0.031295  0.031084  0.000000      2.000000
  0.046942  0.031084  0.000000      2.000000
  0.062590  0.031084  0.000000      2.000000
  0.078237  0.031084  0.000000      2.000000
  0.093884  0.031084  0.000000      2.000000
  0.109532  0.031084  0.000000      2.000000
  0.125179  0.031084  0.000000      2.000000
  0.140827  0.031084  0.000000      2.000000
 -0.140827  0.031084  0.000000      2.000000
 -0.125179  0.031084  0.000000      2.000000
 -0.109532  0.031084  0.000000      2.000000
 -0.093884  0.031084  0.000000      2.000000
 -0.078237  0.031084  0.000000      2.000000
 -0.062590  0.031084  0.000000      2.000000
 -0.046942  0.031084  0.000000      2.000000
 -0.031295  0.031084  0.000000      2.000000
 -0.015647  0.031084  0.000000      2.000000
  0.000000  0.046626  0.000000      2.000000
  0.015647  0.046626  0.000000      2.000000
  0.031295  0.046626  0.000000      2.000000
  0.046942  0.046626  0.000000      2.000000
  0.062590  0.046626  0.000000      2.000000
  0.078237  0.046626  0.000000      2.000000
  0.093884  0.046626  0.000000      2.000000
  0.109532  0.046626  0.000000      2.000000
  0.125179  0.046626  0.000000      2.000000
  0.140827  0.046626  0.000000      2.000000
 -0.140827  0.046626  0.000000      2.000000
 -0.125179  0.046626  0.000000      2.000000
 -0.109532  0.046626  0.000000      2.000000
 -0.093884  0.046626  0.000000      2.000000
 -0.078237  0.046626  0.000000      2.000000
 -0.062590  0.046626  0.000000      2.000000
 -0.046942  0.046626  0.000000      2.000000
 -0.031295  0.046626  0.000000      2.000000
 -0.015647  0.046626  0.000000      2.000000
  0.000000  0.062168  0.000000      2.000000
  0.015647  0.062168  0.000000      2.000000
  0.031295  0.062168  0.000000      2.000000
  0.046942  0.062168  0.000000      2.000000
  0.062590  0.062168  0.000000      2.000000
  0.078237  0.062168  0.000000      2.000000
  0.093884  0.062168  0.000000      2.000000
  0.109532  0.062168  0.000000      2.000000
  0.125179  0.062168  0.000000      2.000000
  0.140827  0.062168  0.000000      2.000000
 -0.140827  0.062168  0.000000      2.000000
 -0.125179  0.062168  0.000000      2.000000
 -0.109532  0.062168  0.000000      2.000000
 -0.093884  0.062168  0.000000      2.000000
 -0.078237  0.062168  0.000000      2.000000
 -0.062590  0.062168  0.000000      2.000000
 -0.046942  0.062168  0.000000      2.000000
 -0.031295  0.062168  0.000000      2.000000
 -0.015647  0.062168  0.000000      2.000000
  0.000000  0.077710  0.000000      2.000000
  0.015647  0.077710  0.000000      2.000000
  0.031295  0.077710  0.000000      2.000000
  0.046942  0.077710  0.000000      2.000000
  0.062590  0.077710  0.000000      2.000000
  0.078237  0.077710  0.000000      2.000000
  0.093884  0.077710  0.000000      2.000000
  0.109532  0.077710  0.000000      2.000000
  0.125179  0.077710  0.000000      2.000000
  0.140827  0.077710  0.000000      2.000000
 -0.140827  0.077710  0.000000      2.000000
 -0.125179  0.077710  0.000000      2.000000
 -0.109532  0.077710  0.000000      2.000000
 -0.093884  0.077710  0.000000      2.000000
 -0.078237  0.077710  0.000000      2.000000
 -0.062590  0.077710  0.000000      2.000000
 -0.046942  0.077710  0.000000      2.000000
 -0.031295  0.077710  0.000000      2.000000
 -0.015647  0.077710  0.000000      2.000000
 


--------------------------------------------------------------------------------------------------------




 Dimension of arrays:
   k-points           NKPTS =    105   k-points in BZ     NKDIM =    105   number of bands    NBANDS=     24
   number of dos      NEDOS =    301   number of ions     NIONS =      6
   non local maximal  LDIM  =      6   non local SUM 2l+1 LMDIM =     18
   total plane-waves  NPLWV = 217728
   max r-space proj   IRMAX =      1   max aug-charges    IRDMAX=  35278
   dimension x,y,z NGX =    28 NGY =   48 NGZ =  162
   dimension x,y,z NGXF=    56 NGYF=   96 NGZF=  324
   support grid    NGXF=    56 NGYF=   96 NGZF=  324
   ions per type =               2   2   2
   NGX,Y,Z   is equivalent  to a cutoff of  13.84, 13.64, 13.30 a.u.
   NGXF,Y,Z  is equivalent  to a cutoff of  27.68, 27.28, 26.60 a.u.

 SYSTEM =  unknown system                          
 POSCAR =  Generated by VASPKIT code               

 Startparameter for this run:
   NWRITE =      2    write-flag & timer
   PREC   = accura    normal or accurate (medium, high low for compatibility)
   ISTART =      0    job   : 0-new  1-cont  2-samecut
   ICHARG =      2    charge: 1-file 2-atom 10-const
   ISPIN  =      1    spin polarized calculation?
   LNONCOLLINEAR =      F non collinear calculations
   LSORBIT =      F    spin-orbit coupling
   INIWAV =      1    electr: 0-lowe 1-rand  2-diag
   LASPH  =      F    aspherical Exc in radial PAW
   METAGGA=      F    non-selfconsistent MetaGGA calc.

 Electronic Relaxation 1
   ENCUT  =  600.0 eV  44.10 Ry    6.64 a.u.   6.72 11.68 40.45*2*pi/ulx,y,z
   ENINI  =  600.0     initial cutoff
   ENAUG  =  368.8 eV  augmentation charge cutoff
   NELM   =     60;   NELMIN=  2; NELMDL= -5     # of ELM steps 
   EDIFF  = 0.1E-06   stopping-criterion for ELM
   LREAL  =      F    real-space projection
   NLSPLINE    = F    spline interpolate recip. space projectors
   LCOMPAT=      F    compatible to vasp.4.4
   GGA_COMPAT  = T    GGA compatible to vasp.4.4-vasp.4.6
   LMAXPAW     = -100 max onsite density
   LMAXMIX     =    2 max onsite mixed and CHGCAR
   VOSKOWN=      0    Vosko Wilk Nusair interpolation
   ROPT   =    0.00000   0.00000   0.00000
 Ionic relaxation
   EDIFFG = -.1E-02   stopping-criterion for IOM
   NSW    =    100    number of steps for IOM
   NBLOCK =      1;   KBLOCK =    100    inner block; outer block 
   IBRION =      2    ionic relax: 0-MD 1-quasi-New 2-CG
   NFREE  =      1    steps in history (QN), initial steepest desc. (CG)
   ISIF   =      2    stress and relaxation
   IWAVPR =     11    prediction:  0-non 1-charg 2-wave 3-comb
   ISYM   =      0    0-nonsym 1-usesym 2-fastsym
   LCORR  =      T    Harris-Foulkes like correction to forces

   POTIM  = 0.5000    time-step for ionic-motion
   TEIN   =    0.0    initial temperature
   TEBEG  =    0.0;   TEEND  =   0.0 temperature during run
   SMASS  =  -3.00    Nose mass-parameter (am)
   estimated Nose-frequenzy (Omega)   =  0.10E-29 period in steps =****** mass=  -0.259E-27a.u.
   SCALEE = 1.0000    scale energy and forces
   NPACO  =    256;   APACO  = 16.0  distance and # of slots for P.C.
   PSTRESS=    0.0 pullay stress

  Mass of Ions in am
   POMASS =  95.94 32.07127.60
  Ionic Valenz
   ZVAL   =   6.00  6.00  6.00
  Atomic Wigner-Seitz radii
   RWIGS  =  -1.00 -1.00 -1.00
  virtual crystal weights 
   VCA    =   1.00  1.00  1.00
   NELECT =      36.0000    total number of electrons
   NUPDOWN=      -1.0000    fix difference up-down

 DOS related values:
   EMIN   =  10.00;   EMAX   =-10.00  energy-range for DOS
   EFERMI =   0.00
   ISMEAR =     0;   SIGMA  =   0.10  broadening in eV -4-tet -1-fermi 0-gaus

 Electronic relaxation 2 (details)
   IALGO  =     38    algorithm
   LDIAG  =      T    sub-space diagonalisation (order eigenvalues)
   LSUBROT=      F    optimize rotation matrix (better conditioning)
   TURBO    =      0    0=normal 1=particle mesh
   IRESTART =      0    0=no restart 2=restart with 2 vectors
   NREBOOT  =      0    no. of reboots
   NMIN     =      0    reboot dimension
   EREF     =   0.00    reference energy to select bands
   IMIX   =      4    mixing-type and parameters
     AMIX     =   0.40;   BMIX     =  1.00
     AMIX_MAG =   1.60;   BMIX_MAG =  1.00
     AMIN     =   0.10
     WC   =   100.;   INIMIX=   1;  MIXPRE=   1;  MAXMIX= -45

 Intra band minimization:
   WEIMIN = 0.0010     energy-eigenvalue tresh-hold
   EBREAK =  0.10E-08  absolut break condition
   DEPER  =   0.30     relativ break condition  

   TIME   =   0.40     timestep for ELM

  volume/ion in A,a.u.               =      66.41       448.16
  Fermi-wavevector in a.u.,A,eV,Ry     =   0.734595  1.388183  7.342105  0.539629
  Thomas-Fermi vector in A             =   1.827586
 
 Write flags
   LWAVE        =      F    write WAVECAR
   LDOWNSAMPLE  =      F    k-point downsampling of WAVECAR
   LCHARG       =      T    write CHGCAR
   LVTOT        =      F    write LOCPOT, total local potential
   LVHAR        =      F    write LOCPOT, Hartree potential only
   LELF         =      F    write electronic localiz. function (ELF)
   LORBIT       =      0    0 simple, 1 ext, 2 COOP (PROOUT), +10 PAW based schemes


 Dipole corrections
   LMONO  =      F    monopole corrections only (constant potential shift)
   LDIPOL =      T    correct potential (dipole corrections)
   IDIPOL =      3    1-x, 2-y, 3-z, 4-all directions 
   EPSILON=  1.0000000 bulk dielectric constant

 Exchange correlation treatment:
   GGA     =    PE    GGA type
   LEXCH   =     8    internal setting for exchange type
   VOSKOWN=      0    Vosko Wilk Nusair interpolation
   LHFCALC =     F    Hartree Fock is set to
   LHFONE  =     F    Hartree Fock one center treatment
   AEXX    =    0.0000 exact exchange contribution

 Linear response parameters
   LEPSILON=     F    determine dielectric tensor
   LRPA    =     F    only Hartree local field effects (RPA)
   LNABLA  =     F    use nabla operator in PAW spheres
   LVEL    =     F    velocity operator in full k-point grid
   LINTERFAST=   F  fast interpolation
   KINTER  =     0    interpolate to denser k-point grid
   CSHIFT  =0.1000    complex shift for real part using Kramers Kronig
   OMEGAMAX=  -1.0    maximum frequency
   DEG_THRESHOLD= 0.2000000E-02 threshold for treating states as degnerate
   RTIME   =   -0.100 relaxation time in fs
  (WPLASMAI=    0.000 imaginary part of plasma frequency in eV, 0.658/RTIME)
   DFIELD  = 0.0000000 0.0000000 0.0000000 field for delta impulse in time
 
 Orbital magnetization related:
   ORBITALMAG=     F  switch on orbital magnetization
   LCHIMAG   =     F  perturbation theory with respect to B field
   DQ        =  0.001000  dq finite difference perturbation B field
   LLRAUG    =     F  two centre corrections for induced B field



--------------------------------------------------------------------------------------------------------


 conjugate gradient relaxation of ions
 charge density and potential will be updated during run
 non-spin polarized calculation
 Variant of blocked Davidson
 Davidson routine will perform the subspace rotation
 perform sub-space diagonalisation
    after iterative eigenvector-optimisation
 modified Broyden-mixing scheme, WC =      100.0
 initial mixing is a Kerker type mixing with AMIX =  0.4000 and BMIX =      1.0000
 Hartree-type preconditioning will be used
 using additional bands            6
 reciprocal scheme for non local part
 use partial core corrections
 calculate Harris-corrections to forces 
   (improved forces if not selfconsistent)
 use gradient corrections 
 use of overlap-Matrix (Vanderbilt PP)
 Gauss-broadening in eV      SIGMA  =   0.10


--------------------------------------------------------------------------------------------------------


  energy-cutoff  :      600.00
  volume of cell :      398.46
      direct lattice vectors                 reciprocal lattice vectors
     3.363599539  0.000000000  0.000000000     0.297300552  0.000000000  0.000000000
     0.000000000  5.849229530  0.000000000     0.000000000  0.170962687  0.000000000
     0.000000000  0.000000000 20.252588272     0.000000000  0.000000000  0.049376405

  length of vectors
     3.363599539  5.849229530 20.252588272     0.297300552  0.170962687  0.049376405


 
 k-points in units of 2pi/SCALE and weight: K-Spacing Value to Generate K-Mesh: 0.01
   0.00000000  0.00000000  0.00000000       0.005
   0.01564740  0.00000000  0.00000000       0.010
   0.03129479  0.00000000  0.00000000       0.010
   0.04694219  0.00000000  0.00000000       0.010
   0.06258959  0.00000000  0.00000000       0.010
   0.07823699  0.00000000  0.00000000       0.010
   0.09388438  0.00000000  0.00000000       0.010
   0.10953178  0.00000000  0.00000000       0.010
   0.12517918  0.00000000  0.00000000       0.010
   0.14082658  0.00000000  0.00000000       0.010
   0.00000000  0.01554206  0.00000000       0.010
   0.01564740  0.01554206  0.00000000       0.010
   0.03129479  0.01554206  0.00000000       0.010
   0.04694219  0.01554206  0.00000000       0.010
   0.06258959  0.01554206  0.00000000       0.010
   0.07823699  0.01554206  0.00000000       0.010
   0.09388438  0.01554206  0.00000000       0.010
   0.10953178  0.01554206  0.00000000       0.010
   0.12517918  0.01554206  0.00000000       0.010
   0.14082658  0.01554206  0.00000000       0.010
  -0.14082658  0.01554206  0.00000000       0.010
  -0.12517918  0.01554206  0.00000000       0.010
  -0.10953178  0.01554206  0.00000000       0.010
  -0.09388438  0.01554206  0.00000000       0.010
  -0.07823699  0.01554206  0.00000000       0.010
  -0.06258959  0.01554206  0.00000000       0.010
  -0.04694219  0.01554206  0.00000000       0.010
  -0.03129479  0.01554206  0.00000000       0.010
  -0.01564740  0.01554206  0.00000000       0.010
   0.00000000  0.03108412  0.00000000       0.010
   0.01564740  0.03108412  0.00000000       0.010
   0.03129479  0.03108412  0.00000000       0.010
   0.04694219  0.03108412  0.00000000       0.010
   0.06258959  0.03108412  0.00000000       0.010
   0.07823699  0.03108412  0.00000000       0.010
   0.09388438  0.03108412  0.00000000       0.010
   0.10953178  0.03108412  0.00000000       0.010
   0.12517918  0.03108412  0.00000000       0.010
   0.14082658  0.03108412  0.00000000       0.010
  -0.14082658  0.03108412  0.00000000       0.010
  -0.12517918  0.03108412  0.00000000       0.010
  -0.10953178  0.03108412  0.00000000       0.010
  -0.09388438  0.03108412  0.00000000       0.010
  -0.07823699  0.03108412  0.00000000       0.010
  -0.06258959  0.03108412  0.00000000       0.010
  -0.04694219  0.03108412  0.00000000       0.010
  -0.03129479  0.03108412  0.00000000       0.010
  -0.01564740  0.03108412  0.00000000       0.010
   0.00000000  0.04662619  0.00000000       0.010
   0.01564740  0.04662619  0.00000000       0.010
   0.03129479  0.04662619  0.00000000       0.010
   0.04694219  0.04662619  0.00000000       0.010
   0.06258959  0.04662619  0.00000000       0.010
   0.07823699  0.04662619  0.00000000       0.010
   0.09388438  0.04662619  0.00000000       0.010
   0.10953178  0.04662619  0.00000000       0.010
   0.12517918  0.04662619  0.00000000       0.010
   0.14082658  0.04662619  0.00000000       0.010
  -0.14082658  0.04662619  0.00000000       0.010
  -0.12517918  0.04662619  0.00000000       0.010
  -0.10953178  0.04662619  0.00000000       0.010
  -0.09388438  0.04662619  0.00000000       0.010
  -0.07823699  0.04662619  0.00000000       0.010
  -0.06258959  0.04662619  0.00000000       0.010
  -0.04694219  0.04662619  0.00000000       0.010
  -0.03129479  0.04662619  0.00000000       0.010
  -0.01564740  0.04662619  0.00000000       0.010
   0.00000000  0.06216825  0.00000000       0.010
   0.01564740  0.06216825  0.00000000       0.010
   0.03129479  0.06216825  0.00000000       0.010
   0.04694219  0.06216825  0.00000000       0.010
   0.06258959  0.06216825  0.00000000       0.010
   0.07823699  0.06216825  0.00000000       0.010
   0.09388438  0.06216825  0.00000000       0.010
   0.10953178  0.06216825  0.00000000       0.010
   0.12517918  0.06216825  0.00000000       0.010
   0.14082658  0.06216825  0.00000000       0.010
  -0.14082658  0.06216825  0.00000000       0.010
  -0.12517918  0.06216825  0.00000000       0.010
  -0.10953178  0.06216825  0.00000000       0.010
  -0.09388438  0.06216825  0.00000000       0.010
  -0.07823699  0.06216825  0.00000000       0.010
  -0.06258959  0.06216825  0.00000000       0.010
  -0.04694219  0.06216825  0.00000000       0.010
  -0.03129479  0.06216825  0.00000000       0.010
  -0.01564740  0.06216825  0.00000000       0.010
   0.00000000  0.07771031  0.00000000       0.010
   0.01564740  0.07771031  0.00000000       0.010
   0.03129479  0.07771031  0.00000000       0.010
   0.04694219  0.07771031  0.00000000       0.010
   0.06258959  0.07771031  0.00000000       0.010
   0.07823699  0.07771031  0.00000000       0.010
   0.09388438  0.07771031  0.00000000       0.010
   0.10953178  0.07771031  0.00000000       0.010
   0.12517918  0.07771031  0.00000000       0.010
   0.14082658  0.07771031  0.00000000       0.010
  -0.14082658  0.07771031  0.00000000       0.010
  -0.12517918  0.07771031  0.00000000       0.010
  -0.10953178  0.07771031  0.00000000       0.010
  -0.09388438  0.07771031  0.00000000       0.010
  -0.07823699  0.07771031  0.00000000       0.010
  -0.06258959  0.07771031  0.00000000       0.010
  -0.04694219  0.07771031  0.00000000       0.010
  -0.03129479  0.07771031  0.00000000       0.010
  -0.01564740  0.07771031  0.00000000       0.010
 
 k-points in reciprocal lattice and weights: K-Spacing Value to Generate K-Mesh: 0.01
   0.00000000  0.00000000  0.00000000       0.005
   0.05263158  0.00000000  0.00000000       0.010
   0.10526316  0.00000000  0.00000000       0.010
   0.15789474  0.00000000  0.00000000       0.010
   0.21052632  0.00000000  0.00000000       0.010
   0.26315789  0.00000000  0.00000000       0.010
   0.31578947  0.00000000  0.00000000       0.010
   0.36842105  0.00000000  0.00000000       0.010
   0.42105263  0.00000000  0.00000000       0.010
   0.47368421  0.00000000  0.00000000       0.010
   0.00000000  0.09090909  0.00000000       0.010
   0.05263158  0.09090909  0.00000000       0.010
   0.10526316  0.09090909  0.00000000       0.010
   0.15789474  0.09090909  0.00000000       0.010
   0.21052632  0.09090909  0.00000000       0.010
   0.26315789  0.09090909  0.00000000       0.010
   0.31578947  0.09090909  0.00000000       0.010
   0.36842105  0.09090909  0.00000000       0.010
   0.42105263  0.09090909  0.00000000       0.010
   0.47368421  0.09090909  0.00000000       0.010
  -0.47368421  0.09090909  0.00000000       0.010
  -0.42105263  0.09090909  0.00000000       0.010
  -0.36842105  0.09090909  0.00000000       0.010
  -0.31578947  0.09090909  0.00000000       0.010
  -0.26315789  0.09090909  0.00000000       0.010
  -0.21052632  0.09090909  0.00000000       0.010
  -0.15789474  0.09090909  0.00000000       0.010
  -0.10526316  0.09090909  0.00000000       0.010
  -0.05263158  0.09090909  0.00000000       0.010
   0.00000000  0.18181818  0.00000000       0.010
   0.05263158  0.18181818  0.00000000       0.010
   0.10526316  0.18181818  0.00000000       0.010
   0.15789474  0.18181818  0.00000000       0.010
   0.21052632  0.18181818  0.00000000       0.010
   0.26315789  0.18181818  0.00000000       0.010
   0.31578947  0.18181818  0.00000000       0.010
   0.36842105  0.18181818  0.00000000       0.010
   0.42105263  0.18181818  0.00000000       0.010
   0.47368421  0.18181818  0.00000000       0.010
  -0.47368421  0.18181818  0.00000000       0.010
  -0.42105263  0.18181818  0.00000000       0.010
  -0.36842105  0.18181818  0.00000000       0.010
  -0.31578947  0.18181818  0.00000000       0.010
  -0.26315789  0.18181818  0.00000000       0.010
  -0.21052632  0.18181818  0.00000000       0.010
  -0.15789474  0.18181818  0.00000000       0.010
  -0.10526316  0.18181818  0.00000000       0.010
  -0.05263158  0.18181818  0.00000000       0.010
   0.00000000  0.27272727  0.00000000       0.010
   0.05263158  0.27272727  0.00000000       0.010
   0.10526316  0.27272727  0.00000000       0.010
   0.15789474  0.27272727  0.00000000       0.010
   0.21052632  0.27272727  0.00000000       0.010
   0.26315789  0.27272727  0.00000000       0.010
   0.31578947  0.27272727  0.00000000       0.010
   0.36842105  0.27272727  0.00000000       0.010
   0.42105263  0.27272727  0.00000000       0.010
   0.47368421  0.27272727  0.00000000       0.010
  -0.47368421  0.27272727  0.00000000       0.010
  -0.42105263  0.27272727  0.00000000       0.010
  -0.36842105  0.27272727  0.00000000       0.010
  -0.31578947  0.27272727  0.00000000       0.010
  -0.26315789  0.27272727  0.00000000       0.010
  -0.21052632  0.27272727  0.00000000       0.010
  -0.15789474  0.27272727  0.00000000       0.010
  -0.10526316  0.27272727  0.00000000       0.010
  -0.05263158  0.27272727  0.00000000       0.010
   0.00000000  0.36363636  0.00000000       0.010
   0.05263158  0.36363636  0.00000000       0.010
   0.10526316  0.36363636  0.00000000       0.010
   0.15789474  0.36363636  0.00000000       0.010
   0.21052632  0.36363636  0.00000000       0.010
   0.26315789  0.36363636  0.00000000       0.010
   0.31578947  0.36363636  0.00000000       0.010
   0.36842105  0.36363636  0.00000000       0.010
   0.42105263  0.36363636  0.00000000       0.010
   0.47368421  0.36363636  0.00000000       0.010
  -0.47368421  0.36363636  0.00000000       0.010
  -0.42105263  0.36363636  0.00000000       0.010
  -0.36842105  0.36363636  0.00000000       0.010
  -0.31578947  0.36363636  0.00000000       0.010
  -0.26315789  0.36363636  0.00000000       0.010
  -0.21052632  0.36363636  0.00000000       0.010
  -0.15789474  0.36363636  0.00000000       0.010
  -0.10526316  0.36363636  0.00000000       0.010
  -0.05263158  0.36363636  0.00000000       0.010
   0.00000000  0.45454545  0.00000000       0.010
   0.05263158  0.45454545  0.00000000       0.010
   0.10526316  0.45454545  0.00000000       0.010
   0.15789474  0.45454545  0.00000000       0.010
   0.21052632  0.45454545  0.00000000       0.010
   0.26315789  0.45454545  0.00000000       0.010
   0.31578947  0.45454545  0.00000000       0.010
   0.36842105  0.45454545  0.00000000       0.010
   0.42105263  0.45454545  0.00000000       0.010
   0.47368421  0.45454545  0.00000000       0.010
  -0.47368421  0.45454545  0.00000000       0.010
  -0.42105263  0.45454545  0.00000000       0.010
  -0.36842105  0.45454545  0.00000000       0.010
  -0.31578947  0.45454545  0.00000000       0.010
  -0.26315789  0.45454545  0.00000000       0.010
  -0.21052632  0.45454545  0.00000000       0.010
  -0.15789474  0.45454545  0.00000000       0.010
  -0.10526316  0.45454545  0.00000000       0.010
  -0.05263158  0.45454545  0.00000000       0.010
 
 position of ions in fractional coordinates (direct lattice) 
   0.49999997  0.16666654  0.50703967
   0.00000000  0.66666651  0.50703967
   0.49999997  0.83333325  0.57974952
   0.00000000  0.33333322  0.57974952
   0.50000000  0.83333325  0.41321075
   0.00000000  0.33333325  0.41321075
 
 position of ions in cartesian coordinates  (Angst):
   1.68179967  0.97487084 10.26886559
   0.00000000  3.89948543 10.26886559
   1.68179967  4.87435748 11.74142843
   0.00000000  1.94974254 11.74142843
   1.68179977  4.87435748  8.36858719
   0.00000000  1.94974271  8.36858719
 


--------------------------------------------------------------------------------------------------------


 k-point  1 :   0.0000 0.0000 0.0000  plane waves:   13331
 k-point  2 :   0.0526 0.0000 0.0000  plane waves:   13337
 k-point  3 :   0.1053 0.0000 0.0000  plane waves:   13315
 k-point  4 :   0.1579 0.0000 0.0000  plane waves:   13335
 k-point  5 :   0.2105 0.0000 0.0000  plane waves:   13323
 k-point  6 :   0.2632 0.0000 0.0000  plane waves:   13277
 k-point  7 :   0.3158 0.0000 0.0000  plane waves:   13286
 k-point  8 :   0.3684 0.0000 0.0000  plane waves:   13272
 k-point  9 :   0.4211 0.0000 0.0000  plane waves:   13296
 k-point 10 :   0.4737 0.0000 0.0000  plane waves:   13258
 k-point 11 :   0.0000 0.0909 0.0000  plane waves:   13337
 k-point 12 :   0.0526 0.0909 0.0000  plane waves:   13334
 k-point 13 :   0.1053 0.0909 0.0000  plane waves:   13330
 k-point 14 :   0.1579 0.0909 0.0000  plane waves:   13310
 k-point 15 :   0.2105 0.0909 0.0000  plane waves:   13311
 k-point 16 :   0.2632 0.0909 0.0000  plane waves:   13296
 k-point 17 :   0.3158 0.0909 0.0000  plane waves:   13281
 k-point 18 :   0.3684 0.0909 0.0000  plane waves:   13290
 k-point 19 :   0.4211 0.0909 0.0000  plane waves:   13283
 k-point 20 :   0.4737 0.0909 0.0000  plane waves:   13286
 k-point 21 :  -0.4737 0.0909 0.0000  plane waves:   13286
 k-point 22 :  -0.4211 0.0909 0.0000  plane waves:   13283
 k-point 23 :  -0.3684 0.0909 0.0000  plane waves:   13290
 k-point 24 :  -0.3158 0.0909 0.0000  plane waves:   13281
 k-point 25 :  -0.2632 0.0909 0.0000  plane waves:   13296
 k-point 26 :  -0.2105 0.0909 0.0000  plane waves:   13311
 k-point 27 :  -0.1579 0.0909 0.0000  plane waves:   13310
 k-point 28 :  -0.1053 0.0909 0.0000  plane waves:   13330
 k-point 29 :  -0.0526 0.0909 0.0000  plane waves:   13334
 k-point 30 :   0.0000 0.1818 0.0000  plane waves:   13323
 k-point 31 :   0.0526 0.1818 0.0000  plane waves:   13307
 k-point 32 :   0.1053 0.1818 0.0000  plane waves:   13310
 k-point 33 :   0.1579 0.1818 0.0000  plane waves:   13292
 k-point 34 :   0.2105 0.1818 0.0000  plane waves:   13294
 k-point 35 :   0.2632 0.1818 0.0000  plane waves:   13280
 k-point 36 :   0.3158 0.1818 0.0000  plane waves:   13276
 k-point 37 :   0.3684 0.1818 0.0000  plane waves:   13298
 k-point 38 :   0.4211 0.1818 0.0000  plane waves:   13292
 k-point 39 :   0.4737 0.1818 0.0000  plane waves:   13289
 k-point 40 :  -0.4737 0.1818 0.0000  plane waves:   13289
 k-point 41 :  -0.4211 0.1818 0.0000  plane waves:   13292
 k-point 42 :  -0.3684 0.1818 0.0000  plane waves:   13298
 k-point 43 :  -0.3158 0.1818 0.0000  plane waves:   13276
 k-point 44 :  -0.2632 0.1818 0.0000  plane waves:   13280
 k-point 45 :  -0.2105 0.1818 0.0000  plane waves:   13294
 k-point 46 :  -0.1579 0.1818 0.0000  plane waves:   13292
 k-point 47 :  -0.1053 0.1818 0.0000  plane waves:   13310
 k-point 48 :  -0.0526 0.1818 0.0000  plane waves:   13307
 k-point 49 :   0.0000 0.2727 0.0000  plane waves:   13291
 k-point 50 :   0.0526 0.2727 0.0000  plane waves:   13309
 k-point 51 :   0.1053 0.2727 0.0000  plane waves:   13306
 k-point 52 :   0.1579 0.2727 0.0000  plane waves:   13292
 k-point 53 :   0.2105 0.2727 0.0000  plane waves:   13285
 k-point 54 :   0.2632 0.2727 0.0000  plane waves:   13279
 k-point 55 :   0.3158 0.2727 0.0000  plane waves:   13274
 k-point 56 :   0.3684 0.2727 0.0000  plane waves:   13297
 k-point 57 :   0.4211 0.2727 0.0000  plane waves:   13314
 k-point 58 :   0.4737 0.2727 0.0000  plane waves:   13303
 k-point 59 :  -0.4737 0.2727 0.0000  plane waves:   13303
 k-point 60 :  -0.4211 0.2727 0.0000  plane waves:   13314
 k-point 61 :  -0.3684 0.2727 0.0000  plane waves:   13297
 k-point 62 :  -0.3158 0.2727 0.0000  plane waves:   13274
 k-point 63 :  -0.2632 0.2727 0.0000  plane waves:   13279
 k-point 64 :  -0.2105 0.2727 0.0000  plane waves:   13285
 k-point 65 :  -0.1579 0.2727 0.0000  plane waves:   13292
 k-point 66 :  -0.1053 0.2727 0.0000  plane waves:   13306
 k-point 67 :  -0.0526 0.2727 0.0000  plane waves:   13309
 k-point 68 :   0.0000 0.3636 0.0000  plane waves:   13290
 k-point 69 :   0.0526 0.3636 0.0000  plane waves:   13294
 k-point 70 :   0.1053 0.3636 0.0000  plane waves:   13282
 k-point 71 :   0.1579 0.3636 0.0000  plane waves:   13291
 k-point 72 :   0.2105 0.3636 0.0000  plane waves:   13291
 k-point 73 :   0.2632 0.3636 0.0000  plane waves:   13282
 k-point 74 :   0.3158 0.3636 0.0000  plane waves:   13283
 k-point 75 :   0.3684 0.3636 0.0000  plane waves:   13304
 k-point 76 :   0.4211 0.3636 0.0000  plane waves:   13305
 k-point 77 :   0.4737 0.3636 0.0000  plane waves:   13325
 k-point 78 :  -0.4737 0.3636 0.0000  plane waves:   13325
 k-point 79 :  -0.4211 0.3636 0.0000  plane waves:   13305
 k-point 80 :  -0.3684 0.3636 0.0000  plane waves:   13304
 k-point 81 :  -0.3158 0.3636 0.0000  plane waves:   13283
 k-point 82 :  -0.2632 0.3636 0.0000  plane waves:   13282
 k-point 83 :  -0.2105 0.3636 0.0000  plane waves:   13291
 k-point 84 :  -0.1579 0.3636 0.0000  plane waves:   13291
 k-point 85 :  -0.1053 0.3636 0.0000  plane waves:   13282
 k-point 86 :  -0.0526 0.3636 0.0000  plane waves:   13294
 k-point 87 :   0.0000 0.4545 0.0000  plane waves:   13298
 k-point 88 :   0.0526 0.4545 0.0000  plane waves:   13282
 k-point 89 :   0.1053 0.4545 0.0000  plane waves:   13287
 k-point 90 :   0.1579 0.4545 0.0000  plane waves:   13298
 k-point 91 :   0.2105 0.4545 0.0000  plane waves:   13291
 k-point 92 :   0.2632 0.4545 0.0000  plane waves:   13275
 k-point 93 :   0.3158 0.4545 0.0000  plane waves:   13275
 k-point 94 :   0.3684 0.4545 0.0000  plane waves:   13287
 k-point 95 :   0.4211 0.4545 0.0000  plane waves:   13309
 k-point 96 :   0.4737 0.4545 0.0000  plane waves:   13348
 k-point 97 :  -0.4737 0.4545 0.0000  plane waves:   13348
 k-point 98 :  -0.4211 0.4545 0.0000  plane waves:   13309
 k-point 99 :  -0.3684 0.4545 0.0000  plane waves:   13287
 k-point ** :  -0.3158 0.4545 0.0000  plane waves:   13275
 k-point ** :  -0.2632 0.4545 0.0000  plane waves:   13275
 k-point ** :  -0.2105 0.4545 0.0000  plane waves:   13291
 k-point ** :  -0.1579 0.4545 0.0000  plane waves:   13298
 k-point ** :  -0.1053 0.4545 0.0000  plane waves:   13287
 k-point ** :  -0.0526 0.4545 0.0000  plane waves:   13282

 maximum and minimum number of plane-waves per node :       575      534

 maximum number of plane-waves:     13348
 maximum index in each direction: 
   IXMAX=    7   IYMAX=   11   IZMAX=   40
   IXMIN=   -7   IYMIN=  -12   IZMIN=  -40


 parallel 3D FFT for wavefunctions:
    minimum data exchange during FFTs selected (reduces bandwidth)
 parallel 3D FFT for charge:
    minimum data exchange during FFTs selected (reduces bandwidth)


 total amount of memory used by VASP MPI-rank0    62837. kBytes
=======================================================================

   base      :      30000. kBytes
   nonl-proj :      25819. kBytes
   fftplans  :       1397. kBytes
   grid      :       2623. kBytes
   one-center:         15. kBytes
   wavefun   :       2983. kBytes
 
     INWAV:  cpu time    0.0000: real time    0.0000
 Broyden mixing: mesh for mixing (old mesh)
   NGX = 13   NGY = 23   NGZ = 81
  (NGX  = 56   NGY  = 96   NGZ  =324)
  gives a total of  24219 points

 initial charge density was supplied:
 charge density of overlapping atoms calculated
 number of electron      36.0000000 magnetization 
 keeping initial charge density in first step


--------------------------------------------------------------------------------------------------------


 Maximum index for augmentation-charges         1245 (set IRDMAX)


--------------------------------------------------------------------------------------------------------


 First call to EWALD:  gamma=   0.241
 Maximum number of real-space cells 5x 3x 1
 Maximum number of reciprocal cells 2x 2x 7

    FEWALD:  cpu time    0.0016: real time    0.0016


--------------------------------------- Iteration      1(   1)  ---------------------------------------


    POTLOK:  cpu time    0.0248: real time    0.0657
    SETDIJ:  cpu time    0.0055: real time    0.0055
     EDDAV:  cpu time    1.2212: real time    1.2325
       DOS:  cpu time    0.0018: real time    0.0018
    --------------------------------------------
      LOOP:  cpu time    1.2532: real time    1.3054

 eigenvalue-minimisations  :  5040
 total energy-change (2. order) : 0.2745916E+03  (-0.1303529E+04)
 number of electron      36.0000000 magnetization 
 augmentation part       36.0000000 magnetization 

 DIPCOR: dipole corrections for dipol
 direction  3 min pos     1,
 dipolmoment           0.000000      0.000000      0.000002 electrons x Angstroem
 Tr[quadrupol]      -125.258259

 energy correction for charged system         0.000000 eV
 dipol+quadrupol energy correction           -0.000000 eV
 added-field ion interaction          0.000000 eV  (added to PSCEN)


 Free energy of the ion-electron system (eV)
  ---------------------------------------------------
  alpha Z        PSCENC =        26.00027516
  Ewald energy   TEWEN  =      4159.59370855
  -Hartree energ DENC   =     -5480.51021821
  -exchange      EXHF   =         0.00000000
  -V(xc)+E(xc)   XCENC  =      -153.14109893
  PAW double counting   =      1381.62273368    -1155.94054365
  entropy T*S    EENTRO =        -0.01661279
  eigenvalues    EBANDS =        61.76163879
  atomic energy  EATOM  =      1435.22174307
  Solvation  Ediel_sol  =         0.00000000
  ---------------------------------------------------
  free energy    TOTEN  =       274.59162567 eV

  energy without entropy =      274.60823847  energy(sigma->0) =      274.59993207


--------------------------------------------------------------------------------------------------------




--------------------------------------- Iteration      1(   2)  ---------------------------------------


     EDDAV:  cpu time    1.4767: real time    1.4773
       DOS:  cpu time    0.0016: real time    0.0016
    --------------------------------------------
      LOOP:  cpu time    1.4783: real time    1.4789

 eigenvalue-minimisations  :  7960
 total energy-change (2. order) :-0.2812092E+03  (-0.2731244E+03)
 number of electron      36.0000000 magnetization 
 augmentation part       36.0000000 magnetization 

 DIPCOR: dipole corrections for dipol
 direction  3 min pos     1,
 dipolmoment           0.000000      0.000000      0.000002 electrons x Angstroem
 Tr[quadrupol]      -125.258259

 energy correction for charged system         0.000000 eV
 dipol+quadrupol energy correction           -0.000000 eV
 added-field ion interaction          0.000000 eV  (added to PSCEN)


 Free energy of the ion-electron system (eV)
  ---------------------------------------------------
  alpha Z        PSCENC =        26.00027516
  Ewald energy   TEWEN  =      4159.59370855
  -Hartree energ DENC   =     -5480.51021821
  -exchange      EXHF   =         0.00000000
  -V(xc)+E(xc)   XCENC  =      -153.14109893
  PAW double counting   =      1381.62273368    -1155.94054365
  entropy T*S    EENTRO =        -0.00033869
  eigenvalues    EBANDS =      -219.46383819
  atomic energy  EATOM  =      1435.22174307
  Solvation  Ediel_sol  =         0.00000000
  ---------------------------------------------------
  free energy    TOTEN  =        -6.61757720 eV

  energy without entropy =       -6.61723852  energy(sigma->0) =       -6.61740786


--------------------------------------------------------------------------------------------------------




--------------------------------------- Iteration      1(   3)  ---------------------------------------


     EDDAV:  cpu time    1.3064: real time    1.3067
       DOS:  cpu time    0.0011: real time    0.0011
    --------------------------------------------
      LOOP:  cpu time    1.3075: real time    1.3078

 eigenvalue-minimisations  :  6664
 total energy-change (2. order) :-0.3413686E+02  (-0.3385006E+02)
 number of electron      36.0000000 magnetization 
 augmentation part       36.0000000 magnetization 

 DIPCOR: dipole corrections for dipol
 direction  3 min pos     1,
 dipolmoment           0.000000      0.000000      0.000002 electrons x Angstroem
 Tr[quadrupol]      -125.258259

 energy correction for charged system         0.000000 eV
 dipol+quadrupol energy correction           -0.000000 eV
 added-field ion interaction          0.000000 eV  (added to PSCEN)


 Free energy of the ion-electron system (eV)
  ---------------------------------------------------
  alpha Z        PSCENC =        26.00027516
  Ewald energy   TEWEN  =      4159.59370855
  -Hartree energ DENC   =     -5480.51021821
  -exchange      EXHF   =         0.00000000
  -V(xc)+E(xc)   XCENC  =      -153.14109893
  PAW double counting   =      1381.62273368    -1155.94054365
  entropy T*S    EENTRO =        -0.00000000
  eigenvalues    EBANDS =      -253.60103864
  atomic energy  EATOM  =      1435.22174307
  Solvation  Ediel_sol  =         0.00000000
  ---------------------------------------------------
  free energy    TOTEN  =       -40.75443897 eV

  energy without entropy =      -40.75443897  energy(sigma->0) =      -40.75443897


--------------------------------------------------------------------------------------------------------




--------------------------------------- Iteration      1(   4)  ---------------------------------------


     EDDAV:  cpu time    1.3627: real time    1.3633
       DOS:  cpu time    0.0011: real time    0.0011
    --------------------------------------------
      LOOP:  cpu time    1.3638: real time    1.3644

 eigenvalue-minimisations  :  7256
 total energy-change (2. order) :-0.1143072E+01  (-0.1138148E+01)
 number of electron      36.0000000 magnetization 
 augmentation part       36.0000000 magnetization 

 DIPCOR: dipole corrections for dipol
 direction  3 min pos     1,
 dipolmoment           0.000000      0.000000      0.000002 electrons x Angstroem
 Tr[quadrupol]      -125.258259

 energy correction for charged system         0.000000 eV
 dipol+quadrupol energy correction           -0.000000 eV
 added-field ion interaction          0.000000 eV  (added to PSCEN)


 Free energy of the ion-electron system (eV)
  ---------------------------------------------------
  alpha Z        PSCENC =        26.00027516
  Ewald energy   TEWEN  =      4159.59370855
  -Hartree energ DENC   =     -5480.51021821
  -exchange      EXHF   =         0.00000000
  -V(xc)+E(xc)   XCENC  =      -153.14109893
  PAW double counting   =      1381.62273368    -1155.94054365
  entropy T*S    EENTRO =        -0.00000000
  eigenvalues    EBANDS =      -254.74411018
  atomic energy  EATOM  =      1435.22174307
  Solvation  Ediel_sol  =         0.00000000
  ---------------------------------------------------
  free energy    TOTEN  =       -41.89751051 eV

  energy without entropy =      -41.89751051  energy(sigma->0) =      -41.89751051


--------------------------------------------------------------------------------------------------------




--------------------------------------- Iteration      1(   5)  ---------------------------------------


     EDDAV:  cpu time    1.3936: real time    1.3941
       DOS:  cpu time    0.0012: real time    0.0012
    CHARGE:  cpu time    0.0443: real time    0.0443
    MIXING:  cpu time    0.0006: real time    0.0006
    --------------------------------------------
      LOOP:  cpu time    1.4397: real time    1.4402

 eigenvalue-minimisations  :  7624
 total energy-change (2. order) :-0.3733727E-01  (-0.3732288E-01)
 number of electron      36.0000000 magnetization 
 augmentation part       -2.3460233 magnetization 

 DIPCOR: dipole corrections for dipol
 direction  3 min pos     1,
 dipolmoment           0.000000      0.000000      0.000002 electrons x Angstroem
 Tr[quadrupol]      -125.258259

 energy correction for charged system         0.000000 eV
 dipol+quadrupol energy correction           -0.000000 eV
 added-field ion interaction          0.000000 eV  (added to PSCEN)


 Broyden mixing:
  rms(total) = 0.26745E+01    rms(broyden)= 0.26745E+01
  rms(prec ) = 0.27159E+01
  weight for this iteration     100.00

 Free energy of the ion-electron system (eV)
  ---------------------------------------------------
  alpha Z        PSCENC =        26.00027516
  Ewald energy   TEWEN  =      4159.59370855
  -Hartree energ DENC   =     -5480.51021821
  -exchange      EXHF   =         0.00000000
  -V(xc)+E(xc)   XCENC  =      -153.14109893
  PAW double counting   =      1381.62273368    -1155.94054365
  entropy T*S    EENTRO =        -0.00000000
  eigenvalues    EBANDS =      -254.78144745
  atomic energy  EATOM  =      1435.22174307
  Solvation  Ediel_sol  =         0.00000000
  ---------------------------------------------------
  free energy    TOTEN  =       -41.93484778 eV

  energy without entropy =      -41.93484778  energy(sigma->0) =      -41.93484778


--------------------------------------------------------------------------------------------------------




--------------------------------------- Iteration      1(   6)  ---------------------------------------


    POTLOK:  cpu time    0.0126: real time    0.0127
    SETDIJ:  cpu time    0.0020: real time    0.0020
     EDDAV:  cpu time    1.3628: real time    1.3633
       DOS:  cpu time    0.0016: real time    0.0016
    CHARGE:  cpu time    0.0436: real time    0.0436
    MIXING:  cpu time    0.0003: real time    0.0003
    --------------------------------------------
      LOOP:  cpu time    1.4229: real time    1.4234

 eigenvalue-minimisations  :  7120
 total energy-change (2. order) : 0.1945489E+01  (-0.1224366E+01)
 number of electron      36.0000000 magnetization 
 augmentation part       -1.4028268 magnetization 

 DIPCOR: dipole corrections for dipol
 direction  3 min pos     1,
 dipolmoment           0.000000      0.000000      0.187479 electrons x Angstroem
 Tr[quadrupol]      -125.288428

 energy correction for charged system         0.000000 eV
 dipol+quadrupol energy correction           -0.007981 eV
 added-field ion interaction          0.000001 eV  (added to PSCEN)


 Broyden mixing:
  rms(total) = 0.11624E+01    rms(broyden)= 0.11624E+01
  rms(prec ) = 0.11969E+01
  weight for this iteration     100.00

 eigenvalues of (default mixing * dielectric matrix)
  average eigenvalue GAMMA=   1.2005
  1.2005

 Free energy of the ion-electron system (eV)
  ---------------------------------------------------
  alpha Z        PSCENC =        25.99229540
  Ewald energy   TEWEN  =      4159.59370855
  -Hartree energ DENC   =     -5479.73110473
  -exchange      EXHF   =         0.00000000
  -V(xc)+E(xc)   XCENC  =      -151.86985978
  PAW double counting   =      1930.64409870    -1706.45115875
  entropy T*S    EENTRO =        -0.00000052
  eigenvalues    EBANDS =      -253.38908029
  atomic energy  EATOM  =      1435.22174307
  Solvation  Ediel_sol  =         0.00000000
  ---------------------------------------------------
  free energy    TOTEN  =       -39.98935835 eV

  energy without entropy =      -39.98935783  energy(sigma->0) =      -39.98935809


--------------------------------------------------------------------------------------------------------




--------------------------------------- Iteration      1(   7)  ---------------------------------------


    POTLOK:  cpu time    0.0126: real time    0.0126
    SETDIJ:  cpu time    0.0020: real time    0.0020
     EDDAV:  cpu time    1.3117: real time    1.3121
       DOS:  cpu time    0.0011: real time    0.0011
    CHARGE:  cpu time    0.0433: real time    0.0433
    MIXING:  cpu time    0.0004: real time    0.0004
    --------------------------------------------
      LOOP:  cpu time    1.3710: real time    1.3714

 eigenvalue-minimisations  :  6864
 total energy-change (2. order) : 0.1943029E+00  (-0.7011518E+00)
 number of electron      36.0000000 magnetization 
 augmentation part       -2.0226523 magnetization 

 DIPCOR: dipole corrections for dipol
 direction  3 min pos     1,
 dipolmoment           0.000000      0.000000      0.187145 electrons x Angstroem
 Tr[quadrupol]      -126.058195

 energy correction for charged system         0.000000 eV
 dipol+quadrupol energy correction           -0.007953 eV
 added-field ion interaction          0.000001 eV  (added to PSCEN)


 Broyden mixing:
  rms(total) = 0.72679E+00    rms(broyden)= 0.72679E+00
  rms(prec ) = 0.76082E+00
  weight for this iteration     100.00

 eigenvalues of (default mixing * dielectric matrix)
  average eigenvalue GAMMA=   1.1980
  1.7869  0.6091

 Free energy of the ion-electron system (eV)
  ---------------------------------------------------
  alpha Z        PSCENC =        25.99232379
  Ewald energy   TEWEN  =      4159.59370855
  -Hartree energ DENC   =     -5494.98782092
  -exchange      EXHF   =         0.00000000
  -V(xc)+E(xc)   XCENC  =      -152.05773787
  PAW double counting   =      2460.89052354    -2237.28366698
  entropy T*S    EENTRO =        -0.00000000
  eigenvalues    EBANDS =      -237.16412863
  atomic energy  EATOM  =      1435.22174307
  Solvation  Ediel_sol  =         0.00000000
  ---------------------------------------------------
  free energy    TOTEN  =       -39.79505544 eV

  energy without entropy =      -39.79505544  energy(sigma->0) =      -39.79505544


--------------------------------------------------------------------------------------------------------




--------------------------------------- Iteration      1(   8)  ---------------------------------------


    POTLOK:  cpu time    0.0124: real time    0.0124
    SETDIJ:  cpu time    0.0021: real time    0.0021
     EDDAV:  cpu time    1.3109: real time    1.3113
       DOS:  cpu time    0.0012: real time    0.0012
    CHARGE:  cpu time    0.0433: real time    0.0433
    MIXING:  cpu time    0.0004: real time    0.0004
    --------------------------------------------
      LOOP:  cpu time    1.3703: real time    1.3707

 eigenvalue-minimisations  :  6848
 total energy-change (2. order) : 0.3542611E+00  (-0.1554722E+00)
 number of electron      36.0000000 magnetization 
 augmentation part       -1.7219789 magnetization 

 DIPCOR: dipole corrections for dipol
 direction  3 min pos     1,
 dipolmoment           0.000000      0.000000      0.137014 electrons x Angstroem
 Tr[quadrupol]      -126.023482

 energy correction for charged system         0.000000 eV
 dipol+quadrupol energy correction           -0.004263 eV
 added-field ion interaction          0.000001 eV  (added to PSCEN)


 Broyden mixing:
  rms(total) = 0.26639E+00    rms(broyden)= 0.26639E+00
  rms(prec ) = 0.27218E+00
  weight for this iteration     100.00

 eigenvalues of (default mixing * dielectric matrix)
  average eigenvalue GAMMA=   1.0994
  2.0524  0.6561  0.5897

 Free energy of the ion-electron system (eV)
  ---------------------------------------------------
  alpha Z        PSCENC =        25.99601335
  Ewald energy   TEWEN  =      4159.59370855
  -Hartree energ DENC   =     -5492.69623723
  -exchange      EXHF   =         0.00000000
  -V(xc)+E(xc)   XCENC  =      -151.58408568
  PAW double counting   =      2807.41555852    -2584.36030297
  entropy T*S    EENTRO =        -0.00000000
  eigenvalues    EBANDS =      -239.02719192
  atomic energy  EATOM  =      1435.22174307
  Solvation  Ediel_sol  =         0.00000000
  ---------------------------------------------------
  free energy    TOTEN  =       -39.44079430 eV

  energy without entropy =      -39.44079430  energy(sigma->0) =      -39.44079430


--------------------------------------------------------------------------------------------------------




--------------------------------------- Iteration      1(   9)  ---------------------------------------


    POTLOK:  cpu time    0.0125: real time    0.0125
    SETDIJ:  cpu time    0.0021: real time    0.0021
     EDDAV:  cpu time    1.3282: real time    1.3288
       DOS:  cpu time    0.0012: real time    0.0012
    CHARGE:  cpu time    0.0436: real time    0.0438
    MIXING:  cpu time    0.0004: real time    0.0004
    --------------------------------------------
      LOOP:  cpu time    1.3880: real time    1.3888

 eigenvalue-minimisations  :  6664
 total energy-change (2. order) : 0.1525779E-01  (-0.1070177E-01)
 number of electron      36.0000000 magnetization 
 augmentation part       -1.7114780 magnetization 

 DIPCOR: dipole corrections for dipol
 direction  3 min pos     1,
 dipolmoment           0.000000      0.000000      0.164848 electrons x Angstroem
 Tr[quadrupol]      -126.132590

 energy correction for charged system         0.000000 eV
 dipol+quadrupol energy correction           -0.006170 eV
 added-field ion interaction          0.000001 eV  (added to PSCEN)


 Broyden mixing:
  rms(total) = 0.97474E-01    rms(broyden)= 0.97474E-01
  rms(prec ) = 0.10004E+00
  weight for this iteration     100.00

 eigenvalues of (default mixing * dielectric matrix)
  average eigenvalue GAMMA=   1.1507
  2.0108  0.9946  0.9946  0.6028

 Free energy of the ion-electron system (eV)
  ---------------------------------------------------
  alpha Z        PSCENC =        25.99410576
  Ewald energy   TEWEN  =      4159.59370855
  -Hartree energ DENC   =     -5495.00743720
  -exchange      EXHF   =         0.00000000
  -V(xc)+E(xc)   XCENC  =      -151.47086123
  PAW double counting   =      2936.06346817    -2713.18703318
  entropy T*S    EENTRO =        -0.00000000
  eigenvalues    EBANDS =      -236.63323046
  atomic energy  EATOM  =      1435.22174307
  Solvation  Ediel_sol  =         0.00000000
  ---------------------------------------------------
  free energy    TOTEN  =       -39.42553652 eV

  energy without entropy =      -39.42553652  energy(sigma->0) =      -39.42553652


--------------------------------------------------------------------------------------------------------




--------------------------------------- Iteration      1(  10)  ---------------------------------------


    POTLOK:  cpu time    0.0122: real time    0.0122
    SETDIJ:  cpu time    0.0020: real time    0.0020
     EDDAV:  cpu time    1.3816: real time    1.3820
       DOS:  cpu time    0.0012: real time    0.0012
    CHARGE:  cpu time    0.0435: real time    0.0435
    MIXING:  cpu time    0.0004: real time    0.0004
    --------------------------------------------
      LOOP:  cpu time    1.4408: real time    1.4412

 eigenvalue-minimisations  :  7424
 total energy-change (2. order) : 0.2553737E-02  (-0.2178425E-02)
 number of electron      36.0000000 magnetization 
 augmentation part       -1.7316457 magnetization 

 DIPCOR: dipole corrections for dipol
 direction  3 min pos     1,
 dipolmoment           0.000000      0.000000      0.168277 electrons x Angstroem
 Tr[quadrupol]      -126.212003

 energy correction for charged system         0.000000 eV
 dipol+quadrupol energy correction           -0.006430 eV
 added-field ion interaction          0.000001 eV  (added to PSCEN)


 Broyden mixing:
  rms(total) = 0.82819E-01    rms(broyden)= 0.82819E-01
  rms(prec ) = 0.83892E-01
  weight for this iteration     100.00

 eigenvalues of (default mixing * dielectric matrix)
  average eigenvalue GAMMA=   1.3245
  2.1743  2.1743  1.0342  0.6197  0.6197

 Free energy of the ion-electron system (eV)
  ---------------------------------------------------
  alpha Z        PSCENC =        25.99384639
  Ewald energy   TEWEN  =      4159.59370855
  -Hartree energ DENC   =     -5496.87781242
  -exchange      EXHF   =         0.00000000
  -V(xc)+E(xc)   XCENC  =      -151.42954940
  PAW double counting   =      2955.58674991    -2732.76831416
  entropy T*S    EENTRO =        -0.00000000
  eigenvalues    EBANDS =      -234.74335472
  atomic energy  EATOM  =      1435.22174307
  Solvation  Ediel_sol  =         0.00000000
  ---------------------------------------------------
  free energy    TOTEN  =       -39.42298278 eV

  energy without entropy =      -39.42298278  energy(sigma->0) =      -39.42298278


--------------------------------------------------------------------------------------------------------




--------------------------------------- Iteration      1(  11)  ---------------------------------------


    POTLOK:  cpu time    0.0123: real time    0.0123
    SETDIJ:  cpu time    0.0021: real time    0.0021
     EDDAV:  cpu time    1.3861: real time    1.3864
       DOS:  cpu time    0.0012: real time    0.0012
    CHARGE:  cpu time    0.0432: real time    0.0432
    MIXING:  cpu time    0.0004: real time    0.0004
    --------------------------------------------
      LOOP:  cpu time    1.4453: real time    1.4456

 eigenvalue-minimisations  :  7424
 total energy-change (2. order) : 0.1376454E-02  (-0.3609295E-03)
 number of electron      36.0000000 magnetization 
 augmentation part       -1.7251662 magnetization 

 DIPCOR: dipole corrections for dipol
 direction  3 min pos     1,
 dipolmoment           0.000000      0.000000      0.160444 electrons x Angstroem
 Tr[quadrupol]      -126.283568

 energy correction for charged system         0.000000 eV
 dipol+quadrupol energy correction           -0.005845 eV
 added-field ion interaction          0.000001 eV  (added to PSCEN)


 Broyden mixing:
  rms(total) = 0.47469E-01    rms(broyden)= 0.47469E-01
  rms(prec ) = 0.49000E-01
  weight for this iteration     100.00

 eigenvalues of (default mixing * dielectric matrix)
  average eigenvalue GAMMA=   1.3145
  2.3653  2.3653  1.0412  0.6111  0.7521  0.7521

 Free energy of the ion-electron system (eV)
  ---------------------------------------------------
  alpha Z        PSCENC =        25.99443103
  Ewald energy   TEWEN  =      4159.59370855
  -Hartree energ DENC   =     -5498.38628787
  -exchange      EXHF   =         0.00000000
  -V(xc)+E(xc)   XCENC  =      -151.38819708
  PAW double counting   =      2972.91978385    -2750.14669038
  entropy T*S    EENTRO =        -0.00000000
  eigenvalues    EBANDS =      -233.23009749
  atomic energy  EATOM  =      1435.22174307
  Solvation  Ediel_sol  =         0.00000000
  ---------------------------------------------------
  free energy    TOTEN  =       -39.42160632 eV

  energy without entropy =      -39.42160632  energy(sigma->0) =      -39.42160632


--------------------------------------------------------------------------------------------------------




--------------------------------------- Iteration      1(  12)  ---------------------------------------


    POTLOK:  cpu time    0.0124: real time    0.0124
    SETDIJ:  cpu time    0.0021: real time    0.0021
     EDDAV:  cpu time    1.3496: real time    1.3501
       DOS:  cpu time    0.0011: real time    0.0011
    CHARGE:  cpu time    0.0431: real time    0.0431
    MIXING:  cpu time    0.0005: real time    0.0005
    --------------------------------------------
      LOOP:  cpu time    1.4088: real time    1.4093

 eigenvalue-minimisations  :  7120
 total energy-change (2. order) : 0.8789710E-03  (-0.3280804E-03)
 number of electron      36.0000000 magnetization 
 augmentation part       -1.7287617 magnetization 

 DIPCOR: dipole corrections for dipol
 direction  3 min pos     1,
 dipolmoment           0.000000      0.000000      0.165340 electrons x Angstroem
 Tr[quadrupol]      -126.349184

 energy correction for charged system         0.000000 eV
 dipol+quadrupol energy correction           -0.006207 eV
 added-field ion interaction          0.000001 eV  (added to PSCEN)


 Broyden mixing:
  rms(total) = 0.14291E-01    rms(broyden)= 0.14291E-01
  rms(prec ) = 0.15976E-01
  weight for this iteration     100.00

 eigenvalues of (default mixing * dielectric matrix)
  average eigenvalue GAMMA=   1.2832
  2.2671  2.2671  1.3936  0.9792  0.6565  0.6565  0.7623

 Free energy of the ion-electron system (eV)
  ---------------------------------------------------
  alpha Z        PSCENC =        25.99406886
  Ewald energy   TEWEN  =      4159.59370855
  -Hartree energ DENC   =     -5499.84624264
  -exchange      EXHF   =         0.00000000
  -V(xc)+E(xc)   XCENC  =      -151.36561672
  PAW double counting   =      2971.91375201    -2749.15290297
  entropy T*S    EENTRO =        -0.00000000
  eigenvalues    EBANDS =      -231.77923750
  atomic energy  EATOM  =      1435.22174307
  Solvation  Ediel_sol  =         0.00000000
  ---------------------------------------------------
  free energy    TOTEN  =       -39.42072735 eV

  energy without entropy =      -39.42072735  energy(sigma->0) =      -39.42072735


--------------------------------------------------------------------------------------------------------




--------------------------------------- Iteration      1(  13)  ---------------------------------------


    POTLOK:  cpu time    0.0126: real time    0.0126
    SETDIJ:  cpu time    0.0021: real time    0.0021
     EDDAV:  cpu time    1.3282: real time    1.3286
       DOS:  cpu time    0.0012: real time    0.0012
    CHARGE:  cpu time    0.0433: real time    0.0433
    MIXING:  cpu time    0.0005: real time    0.0005
    --------------------------------------------
      LOOP:  cpu time    1.3878: real time    1.3883

 eigenvalue-minimisations  :  6792
 total energy-change (2. order) : 0.1627938E-03  (-0.1629846E-03)
 number of electron      36.0000000 magnetization 
 augmentation part       -1.7192400 magnetization 

 DIPCOR: dipole corrections for dipol
 direction  3 min pos     1,
 dipolmoment           0.000000      0.000000      0.164136 electrons x Angstroem
 Tr[quadrupol]      -126.383327

 energy correction for charged system         0.000000 eV
 dipol+quadrupol energy correction           -0.006117 eV
 added-field ion interaction          0.000001 eV  (added to PSCEN)


 Broyden mixing:
  rms(total) = 0.98048E-02    rms(broyden)= 0.98048E-02
  rms(prec ) = 0.11110E-01
  weight for this iteration     100.00

 eigenvalues of (default mixing * dielectric matrix)
  average eigenvalue GAMMA=   1.2397
  2.3785  2.3785  1.5531  1.1311  0.6799  0.6799  0.6779  0.4390

 Free energy of the ion-electron system (eV)
  ---------------------------------------------------
  alpha Z        PSCENC =        25.99415896
  Ewald energy   TEWEN  =      4159.59370855
  -Hartree energ DENC   =     -5500.51819750
  -exchange      EXHF   =         0.00000000
  -V(xc)+E(xc)   XCENC  =      -151.34886628
  PAW double counting   =      2973.40973545    -2750.65084204
  entropy T*S    EENTRO =        -0.00000000
  eigenvalues    EBANDS =      -231.12200476
  atomic energy  EATOM  =      1435.22174307
  Solvation  Ediel_sol  =         0.00000000
  ---------------------------------------------------
  free energy    TOTEN  =       -39.42056456 eV

  energy without entropy =      -39.42056456  energy(sigma->0) =      -39.42056456


--------------------------------------------------------------------------------------------------------




--------------------------------------- Iteration      1(  14)  ---------------------------------------


    POTLOK:  cpu time    0.0126: real time    0.0127
    SETDIJ:  cpu time    0.0020: real time    0.0020
     EDDAV:  cpu time    1.3679: real time    1.3684
       DOS:  cpu time    0.0011: real time    0.0011
    CHARGE:  cpu time    0.0432: real time    0.0432
[...]
     12      -4.5003      2.00000
     13      -3.4801      2.00000
     14      -3.4645      2.00000
     15      -2.7061      2.00000
     16      -2.3804      2.00000
     17      -2.1673      2.00000
     18      -1.9830      2.00000
     19       0.0351      0.00000
     20       0.0833      0.00000
     21       0.1352      0.00000
     22       0.2496      0.00000
     23       1.6428      0.00000
     24       1.6627      0.00000

 k-point    96 :       0.4737    0.4545    0.0000
  band No.  band energies     occupation 
      1     -13.7392      2.00000
      2     -13.7251      2.00000
      3     -12.2833      2.00000
      4     -12.2424      2.00000
      5      -7.4445      2.00000
      6      -7.4095      2.00000
      7      -6.2677      2.00000
      8      -6.2530      2.00000
      9      -5.2555      2.00000
     10      -5.2546      2.00000
     11      -4.5481      2.00000
     12      -4.5315      2.00000
     13      -3.4815      2.00000
     14      -3.4780      2.00000
     15      -2.4498      2.00000
     16      -2.2784      2.00000
     17      -2.1491      2.00000
     18      -2.0257      2.00000
     19       0.0495      0.00000
     20       0.0643      0.00000
     21       0.2183      0.00000
     22       0.2646      0.00000
     23       1.6295      0.00000
     24       1.6367      0.00000

 k-point    97 :      -0.4737    0.4545    0.0000
  band No.  band energies     occupation 
      1     -13.7392      2.00000
      2     -13.7251      2.00000
      3     -12.2833      2.00000
      4     -12.2424      2.00000
      5      -7.4445      2.00000
      6      -7.4095      2.00000
      7      -6.2677      2.00000
      8      -6.2530      2.00000
      9      -5.2555      2.00000
     10      -5.2546      2.00000
     11      -4.5481      2.00000
     12      -4.5315      2.00000
     13      -3.4815      2.00000
     14      -3.4780      2.00000
     15      -2.4498      2.00000
     16      -2.2784      2.00000
     17      -2.1491      2.00000
     18      -2.0257      2.00000
     19       0.0495      0.00000
     20       0.0643      0.00000
     21       0.2183      0.00000
     22       0.2646      0.00000
     23       1.6295      0.00000
     24       1.6367      0.00000

 k-point    98 :      -0.4211    0.4545    0.0000
  band No.  band energies     occupation 
      1     -13.7871      2.00000
      2     -13.7450      2.00000
      3     -12.4220      2.00000
      4     -12.3078      2.00000
      5      -7.2922      2.00000
      6      -7.1980      2.00000
      7      -6.2201      2.00000
      8      -6.1741      2.00000
      9      -5.2499      2.00000
     10      -5.2483      2.00000
     11      -4.5551      2.00000
     12      -4.5003      2.00000
     13      -3.4801      2.00000
     14      -3.4645      2.00000
     15      -2.7061      2.00000
     16      -2.3804      2.00000
     17      -2.1673      2.00000
     18      -1.9830      2.00000
     19       0.0351      0.00000
     20       0.0833      0.00000
     21       0.1352      0.00000
     22       0.2496      0.00000
     23       1.6428      0.00000
     24       1.6627      0.00000

 k-point    99 :      -0.3684    0.4545    0.0000
  band No.  band energies     occupation 
      1     -13.8654      2.00000
      2     -13.7957      2.00000
      3     -12.6229      2.00000
      4     -12.4552      2.00000
      5      -6.9966      2.00000
      6      -6.8714      2.00000
      7      -6.1060      2.00000
      8      -6.0220      2.00000
      9      -5.2503      2.00000
     10      -5.2368      2.00000
     11      -4.5742      2.00000
     12      -4.4741      2.00000
     13      -3.4489      2.00000
     14      -3.4158      2.00000
     15      -2.9939      2.00000
     16      -2.6257      2.00000
     17      -2.1461      2.00000
     18      -2.0052      2.00000
     19      -0.0141      0.00000
     20      -0.0043      0.00000
     21       0.1554      0.00000
     22       0.2162      0.00000
     23       1.5441      0.00000
     24       1.5808      0.00000

 k-point   100 :      -0.3158    0.4545    0.0000
  band No.  band energies     occupation 
      1     -13.9678      2.00000
      2     -13.8711      2.00000
      3     -12.8455      2.00000
      4     -12.6447      2.00000
      5      -6.6477      2.00000
      6      -6.5291      2.00000
      7      -5.9139      2.00000
      8      -5.7845      2.00000
      9      -5.2544      2.00000
     10      -5.2339      2.00000
     11      -4.6087      2.00000
     12      -4.4719      2.00000
     13      -3.3606      2.00000
     14      -3.3604      2.00000
     15      -3.2153      2.00000
     16      -2.8686      2.00000
     17      -2.1349      2.00000
     18      -2.0471      2.00000
     19      -0.1306      0.00000
     20      -0.1303      0.00000
     21       0.2218      0.00000
     22       0.2258      0.00000
     23       1.3334      0.00000
     24       1.4007      0.00000

 k-point   101 :      -0.2632    0.4545    0.0000
  band No.  band energies     occupation 
      1     -14.0853      2.00000
      2     -13.9626      2.00000
      3     -13.0583      2.00000
      4     -12.8404      2.00000
      5      -6.3576      2.00000
      6      -6.2699      2.00000
      7      -5.6499      2.00000
      8      -5.5473      2.00000
      9      -5.2477      2.00000
     10      -5.1699      2.00000
     11      -4.6204      2.00000
     12      -4.4793      2.00000
     13      -3.4871      2.00000
     14      -3.2323      2.00000
     15      -3.1520      2.00000
     16      -3.0635      2.00000
     17      -2.0920      2.00000
     18      -2.0641      2.00000
     19      -0.2583      0.00000
     20      -0.2324      0.00000
     21       0.2555      0.00000
     22       0.2889      0.00000
     23       1.1298      0.00000
     24       1.1699      0.00000

 k-point   102 :      -0.2105    0.4545    0.0000
  band No.  band energies     occupation 
      1     -14.2063      2.00000
      2     -14.0596      2.00000
      3     -13.2422      2.00000
      4     -13.0179      2.00000
      5      -6.1858      2.00000
      6      -6.1382      2.00000
      7      -5.4838      2.00000
      8      -5.4749      2.00000
      9      -5.1758      2.00000
     10      -4.8659      2.00000
     11      -4.5847      2.00000
     12      -4.4642      2.00000
     13      -3.5175      2.00000
     14      -3.2064      2.00000
     15      -3.0824      2.00000
     16      -3.0715      2.00000
     17      -2.0371      2.00000
     18      -2.0078      2.00000
     19      -0.3352      0.00000
     20      -0.2729      0.00000
     21       0.2849      0.00000
     22       0.3548      0.00000
     23       0.9661      0.00000
     24       0.9826      0.00000

 k-point   103 :      -0.1579    0.4545    0.0000
  band No.  band energies     occupation 
      1     -14.3179      2.00000
      2     -14.1508      2.00000
      3     -13.3878      2.00000
      4     -13.1630      2.00000
      5      -6.1355      2.00000
      6      -6.1297      2.00000
      7      -5.4816      2.00000
      8      -5.4386      2.00000
      9      -4.9788      2.00000
     10      -4.5748      2.00000
     11      -4.5258      2.00000
     12      -4.4053      2.00000
     13      -3.3564      2.00000
     14      -3.2257      2.00000
     15      -3.0677      2.00000
     16      -2.9890      2.00000
     17      -2.0018      2.00000
     18      -1.9262      2.00000
     19      -0.3257      0.00000
     20      -0.2293      0.00000
     21       0.3222      0.00000
     22       0.4386      0.00000
     23       0.8496      0.00000
     24       0.9345      0.00000

 k-point   104 :      -0.1053    0.4545    0.0000
  band No.  band energies     occupation 
      1     -14.4076      2.00000
      2     -14.2252      2.00000
      3     -13.4921      2.00000
      4     -13.2689      2.00000
      5      -6.1993      2.00000
      6      -6.1529      2.00000
      7      -5.4962      2.00000
      8      -5.3802      2.00000
      9      -4.8639      2.00000
     10      -4.4346      2.00000
     11      -4.4132      2.00000
     12      -4.2843      2.00000
     13      -3.1984      2.00000
     14      -3.1826      2.00000
     15      -3.0316      2.00000
     16      -2.8903      2.00000
     17      -2.0257      2.00000
     18      -1.9088      2.00000
     19      -0.2502      0.00000
     20      -0.1354      0.00000
     21       0.3907      0.00000
     22       0.5588      0.00000
     23       0.8600      0.00000
     24       1.0013      0.00000

 k-point   105 :      -0.0526    0.4545    0.0000
  band No.  band energies     occupation 
      1     -14.4656      2.00000
      2     -14.2738      2.00000
      3     -13.5544      2.00000
      4     -13.3330      2.00000
      5      -6.2603      2.00000
      6      -6.1949      2.00000
      7      -5.4988      2.00000
      8      -5.3403      2.00000
      9      -4.8408      2.00000
     10      -4.3932      2.00000
     11      -4.2542      2.00000
     12      -4.1595      2.00000
     13      -3.2773      2.00000
     14      -3.2017      2.00000
     15      -2.7689      2.00000
     16      -2.7636      2.00000
     17      -2.1255      2.00000
     18      -1.9541      2.00000
     19      -0.1813      0.00000
     20      -0.0651      0.00000
     21       0.4841      0.00000
     22       0.6836      0.00000
     23       0.9577      0.00000
     24       1.1236      0.00000


--------------------------------------------------------------------------------------------------------


 soft charge-density along one line, spin component           1
         0         1         2         3         4         5         6         7         8         9
 total charge-density along one line
 
 pseudopotential strength for first ion, spin component:           1
 -9.509   0.000   0.000  -0.002  -0.000  -9.700   0.000   0.000
  0.000  -9.518   0.000  -0.000  -0.002   0.000  -9.708   0.000
  0.000   0.000  -9.505   0.000  -0.001   0.000   0.000  -9.696
 -0.002  -0.000   0.000  -9.516   0.000  -0.002  -0.000   0.000
 -0.000  -0.002  -0.001   0.000  -9.509  -0.000  -0.002  -0.001
 -9.700   0.000   0.000  -0.002  -0.000  -9.880   0.000   0.000
  0.000  -9.708   0.000  -0.000  -0.002   0.000  -9.888   0.000
  0.000   0.000  -9.696   0.000  -0.001   0.000   0.000  -9.876
 -0.002  -0.000   0.000  -9.707   0.000  -0.002  -0.000   0.000
 -0.000  -0.002  -0.001   0.000  -9.700  -0.000  -0.002  -0.001
  0.000   0.000   0.000  -0.000  -0.000   0.000   0.000   0.000
  0.000   0.000   0.000  -0.000  -0.001   0.000   0.000   0.000
 -0.000  -0.029  -0.000   0.000   0.007  -0.000  -0.029  -0.000
  0.000   0.000  -0.030  -0.000   0.000   0.000   0.000  -0.030
  0.007   0.000   0.000  -0.029  -0.000   0.007   0.000   0.000
 -0.000  -0.036  -0.000   0.000   0.007  -0.000  -0.036  -0.000
  0.000   0.000  -0.037  -0.000   0.000   0.000   0.000  -0.038
  0.008   0.000   0.000  -0.035  -0.000   0.008   0.000   0.000
 total augmentation occupancy for first ion, spin component:           1
  2.095  -0.000  -0.000   0.430  -0.000  -2.468   0.000   0.000  -0.614   0.000  -0.000   0.000   0.000  -0.000  -0.324  -0.000
 -0.000   3.149  -0.001   0.000   0.427   0.000  -4.105   0.001  -0.000  -0.608  -0.003   0.000  -0.146  -0.005  -0.000   0.028
 -0.000  -0.001   1.531   0.000  -0.001   0.000   0.001  -1.710  -0.000   0.001  -0.095   0.017  -0.000   0.166  -0.000   0.000
  0.430   0.000   0.000   3.152   0.000  -0.614  -0.000  -0.000  -4.106  -0.000  -0.000   0.000  -0.000   0.000  -0.146   0.000
 -0.000   0.427  -0.001   0.000   2.084   0.000  -0.607   0.001  -0.000  -2.461  -0.001   0.000  -0.319  -0.000   0.000   0.048
 -2.468   0.000   0.000  -0.614   0.000   3.754  -0.000  -0.000   0.765  -0.000   0.000  -0.000  -0.000   0.000   0.395   0.000
  0.000  -4.105   0.001  -0.000  -0.607  -0.000   5.919  -0.001   0.000   0.756   0.003  -0.000   0.164   0.006   0.000  -0.039
  0.000   0.001  -1.710  -0.000   0.001  -0.000  -0.001   2.827   0.000  -0.003   0.225  -0.019   0.001  -0.140  -0.000  -0.000
 -0.614  -0.000  -0.000  -4.106  -0.000   0.765   0.000   0.000   5.921   0.000   0.000  -0.000   0.000  -0.000   0.164  -0.000
  0.000  -0.608   0.001  -0.000  -2.461  -0.000   0.756  -0.003   0.000   3.748   0.003  -0.001   0.390  -0.000   0.000  -0.053
 -0.000  -0.003  -0.095  -0.000  -0.001   0.000   0.003   0.225   0.000   0.003   1.549  -0.099   0.002   0.044  -0.000  -0.000
  0.000   0.000   0.017   0.000   0.000  -0.000  -0.000  -0.019  -0.000  -0.001  -0.099   0.008  -0.000  -0.001   0.000   0.000
  0.000  -0.146  -0.000  -0.000  -0.319  -0.000   0.164   0.001   0.000   0.390   0.002  -0.000   0.287   0.000  -0.000  -0.036
 -0.000  -0.005   0.166   0.000  -0.000   0.000   0.006  -0.140  -0.000  -0.000   0.044  -0.001   0.000   0.354  -0.000  -0.000
 -0.324  -0.000  -0.000  -0.146   0.000   0.395   0.000  -0.000   0.164   0.000  -0.000   0.000  -0.000  -0.000   0.288   0.000
 -0.000   0.028   0.000   0.000   0.048   0.000  -0.039  -0.000  -0.000  -0.053  -0.000   0.000  -0.036  -0.000   0.000   0.005
  0.000   0.001  -0.018  -0.000   0.000  -0.000  -0.001   0.007   0.000   0.000  -0.010   0.000  -0.000  -0.043   0.000   0.000
  0.048   0.000   0.000   0.028  -0.000  -0.054  -0.000  -0.000  -0.039   0.000   0.000  -0.000   0.000   0.000  -0.036  -0.000


------------------------ aborting loop because EDIFF is reached ----------------------------------------


    CHARGE:  cpu time    0.0458: real time    0.0458
    FORLOC:  cpu time    0.0003: real time    0.0003
    FORNL :  cpu time    0.0642: real time    0.0642
    STRESS:  cpu time    0.3306: real time    0.3306
    FORCOR:  cpu time    0.0140: real time    0.0140
    FORHAR:  cpu time    0.0024: real time    0.0024
    MIXING:  cpu time    0.0002: real time    0.0002
    OFIELD:  cpu time    0.0000: real time    0.0000

  FORCE on cell =-STRESS in cart. coord.  units (eV):
  Direction    XX          YY          ZZ          XY          YZ          ZX
  --------------------------------------------------------------------------------------
  Alpha Z    26.00028    26.00028    26.00028
  Ewald    5237.39887  5236.38469 -6310.27190     0.00000     0.21485     0.00000
  Hartree  5445.68665  5445.31121 -5383.91886     0.00000     0.08540     0.00000
  E(xc)    -145.35700  -145.33246  -147.13787     0.00000     0.00154    -0.00000
  Local  -11239.03240-11237.65653 11125.85805    -0.00000    -0.31056    -0.00000
  n-local   323.68365   323.76362   338.76608    -0.00000     0.01749     0.00000
  augment   -67.60075   -67.63555   -71.24743     0.00000    -0.00578    -0.00000
  Kinetic   419.12784   418.67561   421.94335    -0.00000    -0.00337     0.00000
  Fock        0.00000     0.00000     0.00000     0.00000     0.00000     0.00000
  -------------------------------------------------------------------------------------
  Total      -0.09285    -0.48913    -0.00831     0.00000    -0.00042     0.00000
  in kB      -0.37335    -1.96678    -0.03340     0.00000    -0.00168     0.00000
  external pressure =       -0.79 kB  Pullay stress =        0.00 kB


 VOLUME and BASIS-vectors are now :
 -----------------------------------------------------------------------------
  energy-cutoff  :      600.00
  volume of cell :      398.46
      direct lattice vectors                 reciprocal lattice vectors
     3.363599539  0.000000000  0.000000000     0.297300552  0.000000000  0.000000000
     0.000000000  5.849229530  0.000000000     0.000000000  0.170962687  0.000000000
     0.000000000  0.000000000 20.252588272     0.000000000  0.000000000  0.049376405

  length of vectors
     3.363599539  5.849229530 20.252588272     0.297300552  0.170962687  0.049376405


 FORCES acting on ions
    electron-ion (+dipol)            ewald-force                    non-local-force                 convergence-correction
 -----------------------------------------------------------------------------------------------
   -.640E-07 0.348E+00 -.408E+01   0.603E-07 -.346E+00 0.640E+01   -.120E-07 -.196E-02 -.232E+01   0.599E-08 -.184E-03 -.539E-03
   0.222E-06 0.348E+00 -.408E+01   -.191E-06 -.346E+00 0.640E+01   0.211E-07 -.197E-02 -.232E+01   -.153E-07 0.369E-04 -.463E-03
   -.352E-06 -.235E+00 -.464E+03   0.357E-06 0.227E+00 0.470E+03   0.912E-07 0.604E-02 -.559E+01   0.180E-07 0.171E-02 0.887E-04
   -.320E-07 -.231E+00 -.464E+03   0.134E-07 0.227E+00 0.470E+03   0.245E-07 0.627E-02 -.559E+01   0.800E-08 -.193E-02 -.969E-03
   0.285E-06 -.121E+00 0.471E+03   -.280E-06 0.119E+00 -.476E+03   -.957E-07 0.858E-03 0.460E+01   -.190E-08 0.127E-02 -.593E-03
   -.369E-07 -.118E+00 0.471E+03   0.403E-07 0.119E+00 -.476E+03   -.233E-07 0.937E-03 0.460E+01   0.836E-09 -.127E-02 0.254E-03
 -----------------------------------------------------------------------------------------------
   0.224E-07 -.949E-02 0.661E+01   -.659E-14 -.892E-14 -.568E-13   0.572E-08 0.102E-01 -.661E+01   0.157E-07 -.362E-03 -.222E-02
 
 
 POSITION                                       TOTAL-FORCE (eV/Angst)
 -----------------------------------------------------------------------------------
      1.68180      0.97381     10.26871        -0.000000     -0.000029      0.000124
     -0.00000      3.89843     10.26871         0.000000     -0.000001     -0.000077
      1.68180      4.87495     11.73943         0.000000     -0.000183     -0.000114
     -0.00000      1.95034     11.73943         0.000000     -0.000115     -0.000028
      1.68180      4.87482      8.37073        -0.000000      0.000073      0.000098
     -0.00000      1.95021      8.37073        -0.000000      0.000255     -0.000003
 -----------------------------------------------------------------------------------
    total drift:                                0.000000      0.000315     -0.000791


--------------------------------------------------------------------------------------------------------



  FREE ENERGIE OF THE ION-ELECTRON SYSTEM (eV)
  ---------------------------------------------------
  free  energy   TOTEN  =       -39.42158536 eV

  energy  without entropy=      -39.42158536  energy(sigma->0) =      -39.42158536
 
 d Force = 0.6721664E-07[-0.744E-08, 0.142E-06]  d Energy = 0.9059613E-07-0.234E-07
 d Force = 0.2045672E-01[ 0.205E-01, 0.205E-01]  d Ewald  = 0.2045672E-01-0.600E-10


--------------------------------------------------------------------------------------------------------


    POTLOK:  cpu time    0.0142: real time    0.0142


--------------------------------------------------------------------------------------------------------




--------------------------------------------------------------------------------------------------------


  
 reached required accuracy - stopping structural energy minimisation
     LOOP+:  cpu time    2.9862: real time    3.0613
    4ORBIT:  cpu time    0.0000: real time    0.0000

 total amount of memory used by VASP MPI-rank0    62837. kBytes
=======================================================================

   base      :      30000. kBytes
   nonl-proj :      25819. kBytes
   fftplans  :       1397. kBytes
   grid      :       2623. kBytes
   one-center:         15. kBytes
   wavefun   :       2983. kBytes
 
  
  
 General timing and accounting informations for this job:
 ========================================================
  
                  Total CPU time used (sec):       85.395
                            User time (sec):       82.371
                          System time (sec):        3.024
                         Elapsed time (sec):       86.447
  
                   Maximum memory used (kb):      174652.
                   Average memory used (kb):           0.
  
                          Minor page faults:        25098
                          Major page faults:         1055
                 Voluntary context switches:         1632
