 vasp.5.4.4.18Apr17-6-g9f103f2a35 (build Oct 01 2024 10:11:53) complex          
  
 executed on              Shaheen date 2025.02.19  15:18:41
 running on  192 total cores
 distrk:  each k-point on  192 cores,    1 groups
 distr:  one band on NCORES_PER_BAND=  24 cores,    8 groups


--------------------------------------------------------------------------------------------------------


 INCAR:
 POTCAR:    PAW_PBE Mo 08Apr2002                  
 POTCAR:    PAW_PBE S 06Sep2000                   
 POTCAR:    PAW_PBE Te 08Apr2002                  
 POTCAR:    PAW_PBE Mo 08Apr2002                  
   VRHFIN =Mo: 4p5s4d                                                           
   LEXCH  = PE                                                                  
   EATOM  =   217.5176 eV,   15.9871 Ry                                         
                                                                                
   TITEL  = PAW_PBE Mo 08Apr2002                                                
   LULTRA =        F    use ultrasoft PP ?                                      
   IUNSCR =        1    unscreen: 0-lin 1-nonlin 2-no                           
   RPACOR =    2.200    partial core radius                                     
   POMASS =   95.940; ZVAL   =    6.000    mass and valenz                      
   RCORE  =    2.750    outmost cutoff radius                                   
   RWIGS  =    2.750; RWIGS  =    1.455    wigner-seitz radius (au A)           
   ENMAX  =  224.584; ENMIN  =  168.438 eV                                      
   RCLOC  =    2.111    cutoff for local pot                                    
   LCOR   =        T    correct aug charges                                     
   LPAW   =        T    paw PP                                                  
   EAUG   =  345.278                                                            
   DEXC   =    0.000                                                            
   RMAX   =    2.821    core radius for proj-oper                               
   RAUG   =    1.300    factor for augmentation sphere                          
   RDEP   =    2.815    radius for radial grids                                 
   RDEPT  =    2.211    core radius for aug-charge                              
                                                                                
   Atomic configuration                                                         
   12 entries                                                                   
     n  l   j            E        occ.                                          
     1  0  0.50    -19819.0341   2.0000                                         
     2  0  0.50     -2799.0127   2.0000                                         
     2  1  1.50     -2502.0276   6.0000                                         
     3  0  0.50      -476.4448   2.0000                                         
     3  1  1.50      -379.1496   6.0000                                         
     3  2  2.50      -220.9367  10.0000                                         
     4  0  0.50       -64.3378   2.0000                                         
     4  1  1.50       -38.4773   6.0000                                         
     4  2  2.50        -3.7535   5.0000                                         
     5  0  0.50        -4.0862   1.0000                                         
     5  1  0.50        -2.7701   0.0000                                         
     4  3  2.50        -1.3606   0.0000                                         
   Description                                                                  
     l       E           TYP  RCUT    TYP  RCUT                                 
     2     -3.7534765     23  2.500                                             
     2     -5.1140591     23  2.500                                             
     0     -4.0861560     23  2.600                                             
     0     13.6058260     23  2.600                                             
     1      5.4423304     23  2.750                                             
     1     27.2116520     23  2.750                                             
  local pseudopotential read in
  partial core-charges read in
  partial kinetic energy density read in
  atomic valenz-charges read in
  non local Contribution for L=           2  read in
    real space projection operators read in
  non local Contribution for L=           2  read in
    real space projection operators read in
  non local Contribution for L=           0  read in
    real space projection operators read in
  non local Contribution for L=           0  read in
    real space projection operators read in
  non local Contribution for L=           1  read in
    real space projection operators read in
  non local Contribution for L=           1  read in
    real space projection operators read in
    PAW grid and wavefunctions read in
 
   number of l-projection  operators is LMAX  =           6
   number of lm-projection operators is LMMAX =          18
 
 POTCAR:    PAW_PBE S 06Sep2000                   
   VRHFIN =S : s2p4                                                             
   LEXCH  = PE                                                                  
   EATOM  =   276.8230 eV,   20.3459 Ry                                         
                                                                                
   TITEL  = PAW_PBE S 06Sep2000                                                 
   LULTRA =        F    use ultrasoft PP ?                                      
   IUNSCR =        1    unscreen: 0-lin 1-nonlin 2-no                           
   RPACOR =    1.500    partial core radius                                     
   POMASS =   32.066; ZVAL   =    6.000    mass and valenz                      
   RCORE  =    1.900    outmost cutoff radius                                   
   RWIGS  =    2.200; RWIGS  =    1.164    wigner-seitz radius (au A)           
   ENMAX  =  258.689; ENMIN  =  194.016 eV                                      
   ICORE  =        2    local potential                                         
   LCOR   =        T    correct aug charges                                     
   LPAW   =        T    paw PP                                                  
   EAUG   =  335.092                                                            
   DEXC   =    0.000                                                            
   RMAX   =    1.942    core radius for proj-oper                               
   RAUG   =    1.300    factor for augmentation sphere                          
   RDEP   =    1.954    radius for radial grids                                 
   RDEPT  =    1.744    core radius for aug-charge                              
                                                                                
   Atomic configuration                                                         
    6 entries                                                                   
     n  l   j            E        occ.                                          
     1  0  0.50     -2405.8406   2.0000                                         
     2  0  0.50      -211.7007   2.0000                                         
     2  1  1.50      -156.4958   6.0000                                         
     3  0  0.50       -17.2562   2.0000                                         
     3  1  0.50        -7.0085   4.0000                                         
     3  2  1.50        -6.8029   0.0000                                         
   Description                                                                  
     l       E           TYP  RCUT    TYP  RCUT                                 
     0    -17.2561641     23  1.900                                             
     0    -15.8743224     23  1.900                                             
     1     -7.0085400     23  1.900                                             
     1     -2.7779785     23  1.900                                             
     2     -6.8029130     23  1.900                                             
  local pseudopotential read in
  partial core-charges read in
  partial kinetic energy density read in
  atomic valenz-charges read in
  non local Contribution for L=           0  read in
    real space projection operators read in
  non local Contribution for L=           0  read in
    real space projection operators read in
  non local Contribution for L=           1  read in
    real space projection operators read in
  non local Contribution for L=           1  read in
    real space projection operators read in
    PAW grid and wavefunctions read in
 
   number of l-projection  operators is LMAX  =           4
   number of lm-projection operators is LMMAX =           8
 
 POTCAR:    PAW_PBE Te 08Apr2002                  
   VRHFIN =Te: s2p4                                                             
   LEXCH  = PE                                                                  
   EATOM  =   223.2721 eV,   16.4100 Ry                                         
                                                                                
   TITEL  = PAW_PBE Te 08Apr2002                                                
   LULTRA =        F    use ultrasoft PP ?                                      
   IUNSCR =        1    unscreen: 0-lin 1-nonlin 2-no                           
   RPACOR =    2.200    partial core radius                                     
   POMASS =  127.600; ZVAL   =    6.000    mass and valenz                      
   RCORE  =    2.300    outmost cutoff radius                                   
   RWIGS  =    2.900; RWIGS  =    1.535    wigner-seitz radius (au A)           
   ENMAX  =  174.982; ENMIN  =  131.236 eV                                      
   ICORE  =        3    local potential                                         
   LCOR   =        T    correct aug charges                                     
   LPAW   =        T    paw PP                                                  
   EAUG   =  368.792                                                            
   DEXC   =    0.000                                                            
   RMAX   =    2.345    core radius for proj-oper                               
   RAUG   =    1.300    factor for augmentation sphere                          
   RDEP   =    2.397    radius for radial grids                                 
   RDEPT  =    2.174    core radius for aug-charge                              
                                                                                
   Atomic configuration                                                         
   13 entries                                                                   
     n  l   j            E        occ.                                          
     1  0  0.50    -31621.2075   2.0000                                         
     2  0  0.50     -4848.7941   2.0000                                         
     2  1  1.50     -4352.1960   6.0000                                         
     3  0  0.50      -964.9612   2.0000                                         
     3  1  1.50      -803.6179   6.0000                                         
     3  2  2.50      -559.8710  10.0000                                         
     4  0  0.50      -164.3522   2.0000                                         
     4  1  1.50      -114.3756   6.0000                                         
     4  2  2.50       -41.6483  10.0000                                         
     5  0  0.50       -15.1072   2.0000                                         
     5  1  0.50        -5.9526   4.0000                                         
     5  2  1.50        -5.4423   0.0000                                         
     4  3  2.50        -5.4423   0.0000                                         
   Description                                                                  
     l       E           TYP  RCUT    TYP  RCUT                                 
     0    -15.1072389     23  2.300                                             
     0    -16.4678215     23  2.300                                             
     1     -5.9526306     23  2.300                                             
     1     -2.4873968     23  2.300                                             
     2     -5.4423304     23  2.300                                             
     3     -1.3605826     23  2.300                                             
  local pseudopotential read in
  partial core-charges read in
  partial kinetic energy density read in
  atomic valenz-charges read in
  non local Contribution for L=           0  read in
    real space projection operators read in
  non local Contribution for L=           0  read in
    real space projection operators read in
  non local Contribution for L=           1  read in
    real space projection operators read in
  non local Contribution for L=           1  read in
    real space projection operators read in
  non local Contribution for L=           2  read in
    real space projection operators read in
    PAW grid and wavefunctions read in
 
   number of l-projection  operators is LMAX  =           5
   number of lm-projection operators is LMMAX =          13
 
  PAW_PBE Mo 08Apr2002                  :
 energy of atom  1       EATOM= -217.5176
 kinetic energy error for atom=    0.0005 (will be added to EATOM!!)
  PAW_PBE S 06Sep2000                   :
 energy of atom  2       EATOM= -276.8230
 kinetic energy error for atom=    0.0009 (will be added to EATOM!!)
  PAW_PBE Te 08Apr2002                  :
 energy of atom  3       EATOM= -223.2721
 kinetic energy error for atom=    0.0004 (will be added to EATOM!!)
 
 
 POSCAR: Generated by VASPKIT code               
  positions in direct lattice
  velocities in cartesian coordinates
 exchange correlation table for  LEXCH =        8
   RHO(1)=    0.500       N(1)  =     2000
   RHO(2)=  100.500       N(2)  =     4000
 


--------------------------------------------------------------------------------------------------------


 ion  position               nearest neighbor table
   1  0.500  0.167  0.507-   3 2.43   4 2.44   4 2.44   5 2.71   6 2.72   6 2.72   2 3.35   2 3.35
                             2 3.35   2 3.35
   2  0.000  0.667  0.507-   4 2.43   3 2.44   3 2.44   6 2.71   5 2.72   5 2.72   1 3.35   1 3.35
                             1 3.35   1 3.35
   3  0.500  0.833  0.580-   1 2.43   2 2.44   2 2.44
   4  0.000  0.333  0.580-   2 2.43   1 2.44   1 2.44
   5  0.500  0.833  0.413-   1 2.71   2 2.72   2 2.72   6 3.35   6 3.35   6 3.35   6 3.35
   6  0.000  0.333  0.413-   2 2.71   1 2.72   1 2.72   5 3.35   5 3.35   5 3.35   5 3.35
 

IMPORTANT INFORMATION: All symmetrisations will be switched off!
NOSYMM: (Re-)initialisation of all symmetry stuff for point group C_1.

 
 
 KPOINTS: K-Spacing Value to Generate K-Mesh: 0.01

Automatic generation of k-mesh.
Space group operators:
 irot       det(A)        alpha          n_x          n_y          n_z        tau_x        tau_y        tau_z
    1     1.000000     0.000000     1.000000     0.000000     0.000000     0.000000     0.000000     0.000000
 
 Subroutine IBZKPT returns following result:
 ===========================================
 
 Found    105 irreducible k-points:
 
 Following reciprocal coordinates:
            Coordinates               Weight
  0.000000  0.000000  0.000000      1.000000
  0.052632  0.000000  0.000000      2.000000
  0.105263  0.000000  0.000000      2.000000
  0.157895  0.000000  0.000000      2.000000
  0.210526  0.000000  0.000000      2.000000
  0.263158  0.000000  0.000000      2.000000
  0.315789  0.000000  0.000000      2.000000
  0.368421  0.000000  0.000000      2.000000
  0.421053  0.000000  0.000000      2.000000
  0.473684  0.000000  0.000000      2.000000
  0.000000  0.090909  0.000000      2.000000
  0.052632  0.090909  0.000000      2.000000
  0.105263  0.090909  0.000000      2.000000
  0.157895  0.090909  0.000000      2.000000
  0.210526  0.090909  0.000000      2.000000
  0.263158  0.090909  0.000000      2.000000
  0.315789  0.090909  0.000000      2.000000
  0.368421  0.090909  0.000000      2.000000
  0.421053  0.090909  0.000000      2.000000
  0.473684  0.090909  0.000000      2.000000
 -0.473684  0.090909  0.000000      2.000000
 -0.421053  0.090909  0.000000      2.000000
 -0.368421  0.090909  0.000000      2.000000
 -0.315789  0.090909  0.000000      2.000000
 -0.263158  0.090909  0.000000      2.000000
 -0.210526  0.090909  0.000000      2.000000
 -0.157895  0.090909  0.000000      2.000000
 -0.105263  0.090909  0.000000      2.000000
 -0.052632  0.090909  0.000000      2.000000
  0.000000  0.181818  0.000000      2.000000
  0.052632  0.181818  0.000000      2.000000
  0.105263  0.181818  0.000000      2.000000
  0.157895  0.181818  0.000000      2.000000
  0.210526  0.181818  0.000000      2.000000
  0.263158  0.181818  0.000000      2.000000
  0.315789  0.181818  0.000000      2.000000
  0.368421  0.181818  0.000000      2.000000
  0.421053  0.181818  0.000000      2.000000
  0.473684  0.181818  0.000000      2.000000
 -0.473684  0.181818  0.000000      2.000000
 -0.421053  0.181818  0.000000      2.000000
 -0.368421  0.181818  0.000000      2.000000
 -0.315789  0.181818  0.000000      2.000000
 -0.263158  0.181818  0.000000      2.000000
 -0.210526  0.181818  0.000000      2.000000
 -0.157895  0.181818  0.000000      2.000000
 -0.105263  0.181818  0.000000      2.000000
 -0.052632  0.181818  0.000000      2.000000
  0.000000  0.272727  0.000000      2.000000
  0.052632  0.272727  0.000000      2.000000
  0.105263  0.272727  0.000000      2.000000
  0.157895  0.272727  0.000000      2.000000
  0.210526  0.272727  0.000000      2.000000
  0.263158  0.272727  0.000000      2.000000
  0.315789  0.272727  0.000000      2.000000
  0.368421  0.272727  0.000000      2.000000
  0.421053  0.272727  0.000000      2.000000
  0.473684  0.272727  0.000000      2.000000
 -0.473684  0.272727  0.000000      2.000000
 -0.421053  0.272727  0.000000      2.000000
 -0.368421  0.272727  0.000000      2.000000
 -0.315789  0.272727  0.000000      2.000000
 -0.263158  0.272727  0.000000      2.000000
 -0.210526  0.272727  0.000000      2.000000
 -0.157895  0.272727  0.000000      2.000000
 -0.105263  0.272727  0.000000      2.000000
 -0.052632  0.272727  0.000000      2.000000
  0.000000  0.363636  0.000000      2.000000
  0.052632  0.363636  0.000000      2.000000
  0.105263  0.363636  0.000000      2.000000
  0.157895  0.363636  0.000000      2.000000
  0.210526  0.363636  0.000000      2.000000
  0.263158  0.363636  0.000000      2.000000
  0.315789  0.363636  0.000000      2.000000
  0.368421  0.363636  0.000000      2.000000
  0.421053  0.363636  0.000000      2.000000
  0.473684  0.363636  0.000000      2.000000
 -0.473684  0.363636  0.000000      2.000000
 -0.421053  0.363636  0.000000      2.000000
 -0.368421  0.363636  0.000000      2.000000
 -0.315789  0.363636  0.000000      2.000000
 -0.263158  0.363636  0.000000      2.000000
 -0.210526  0.363636  0.000000      2.000000
 -0.157895  0.363636  0.000000      2.000000
 -0.105263  0.363636  0.000000      2.000000
 -0.052632  0.363636  0.000000      2.000000
  0.000000  0.454545  0.000000      2.000000
  0.052632  0.454545  0.000000      2.000000
  0.105263  0.454545  0.000000      2.000000
  0.157895  0.454545  0.000000      2.000000
  0.210526  0.454545  0.000000      2.000000
  0.263158  0.454545  0.000000      2.000000
  0.315789  0.454545  0.000000      2.000000
  0.368421  0.454545  0.000000      2.000000
  0.421053  0.454545  0.000000      2.000000
  0.473684  0.454545  0.000000      2.000000
 -0.473684  0.454545  0.000000      2.000000
 -0.421053  0.454545  0.000000      2.000000
 -0.368421  0.454545  0.000000      2.000000
 -0.315789  0.454545  0.000000      2.000000
 -0.263158  0.454545  0.000000      2.000000
 -0.210526  0.454545  0.000000      2.000000
 -0.157895  0.454545  0.000000      2.000000
 -0.105263  0.454545  0.000000      2.000000
 -0.052632  0.454545  0.000000      2.000000
 
 Following cartesian coordinates:
            Coordinates               Weight
  0.000000  0.000000  0.000000      1.000000
  0.015647  0.000000  0.000000      2.000000
  0.031295  0.000000  0.000000      2.000000
  0.046942  0.000000  0.000000      2.000000
  0.062590  0.000000  0.000000      2.000000
  0.078237  0.000000  0.000000      2.000000
  0.093884  0.000000  0.000000      2.000000
  0.109532  0.000000  0.000000      2.000000
  0.125179  0.000000  0.000000      2.000000
  0.140827  0.000000  0.000000      2.000000
  0.000000  0.015683  0.000000      2.000000
  0.015647  0.015683  0.000000      2.000000
  0.031295  0.015683  0.000000      2.000000
  0.046942  0.015683  0.000000      2.000000
  0.062590  0.015683  0.000000      2.000000
  0.078237  0.015683  0.000000      2.000000
  0.093884  0.015683  0.000000      2.000000
  0.109532  0.015683  0.000000      2.000000
  0.125179  0.015683  0.000000      2.000000
  0.140827  0.015683  0.000000      2.000000
 -0.140827  0.015683  0.000000      2.000000
 -0.125179  0.015683  0.000000      2.000000
 -0.109532  0.015683  0.000000      2.000000
 -0.093884  0.015683  0.000000      2.000000
 -0.078237  0.015683  0.000000      2.000000
 -0.062590  0.015683  0.000000      2.000000
 -0.046942  0.015683  0.000000      2.000000
 -0.031295  0.015683  0.000000      2.000000
 -0.015647  0.015683  0.000000      2.000000
  0.000000  0.031365  0.000000      2.000000
  0.015647  0.031365  0.000000      2.000000
  0.031295  0.031365  0.000000      2.000000
  0.046942  0.031365  0.000000      2.000000
  0.062590  0.031365  0.000000      2.000000
  0.078237  0.031365  0.000000      2.000000
  0.093884  0.031365  0.000000      2.000000
  0.109532  0.031365  0.000000      2.000000
  0.125179  0.031365  0.000000      2.000000
  0.140827  0.031365  0.000000      2.000000
 -0.140827  0.031365  0.000000      2.000000
 -0.125179  0.031365  0.000000      2.000000
 -0.109532  0.031365  0.000000      2.000000
 -0.093884  0.031365  0.000000      2.000000
 -0.078237  0.031365  0.000000      2.000000
 -0.062590  0.031365  0.000000      2.000000
 -0.046942  0.031365  0.000000      2.000000
 -0.031295  0.031365  0.000000      2.000000
 -0.015647  0.031365  0.000000      2.000000
  0.000000  0.047048  0.000000      2.000000
  0.015647  0.047048  0.000000      2.000000
  0.031295  0.047048  0.000000      2.000000
  0.046942  0.047048  0.000000      2.000000
  0.062590  0.047048  0.000000      2.000000
  0.078237  0.047048  0.000000      2.000000
  0.093884  0.047048  0.000000      2.000000
  0.109532  0.047048  0.000000      2.000000
  0.125179  0.047048  0.000000      2.000000
  0.140827  0.047048  0.000000      2.000000
 -0.140827  0.047048  0.000000      2.000000
 -0.125179  0.047048  0.000000      2.000000
 -0.109532  0.047048  0.000000      2.000000
 -0.093884  0.047048  0.000000      2.000000
 -0.078237  0.047048  0.000000      2.000000
 -0.062590  0.047048  0.000000      2.000000
 -0.046942  0.047048  0.000000      2.000000
 -0.031295  0.047048  0.000000      2.000000
 -0.015647  0.047048  0.000000      2.000000
  0.000000  0.062731  0.000000      2.000000
  0.015647  0.062731  0.000000      2.000000
  0.031295  0.062731  0.000000      2.000000
  0.046942  0.062731  0.000000      2.000000
  0.062590  0.062731  0.000000      2.000000
  0.078237  0.062731  0.000000      2.000000
  0.093884  0.062731  0.000000      2.000000
  0.109532  0.062731  0.000000      2.000000
  0.125179  0.062731  0.000000      2.000000
  0.140827  0.062731  0.000000      2.000000
 -0.140827  0.062731  0.000000      2.000000
 -0.125179  0.062731  0.000000      2.000000
 -0.109532  0.062731  0.000000      2.000000
 -0.093884  0.062731  0.000000      2.000000
 -0.078237  0.062731  0.000000      2.000000
 -0.062590  0.062731  0.000000      2.000000
 -0.046942  0.062731  0.000000      2.000000
 -0.031295  0.062731  0.000000      2.000000
 -0.015647  0.062731  0.000000      2.000000
  0.000000  0.078413  0.000000      2.000000
  0.015647  0.078413  0.000000      2.000000
  0.031295  0.078413  0.000000      2.000000
  0.046942  0.078413  0.000000      2.000000
  0.062590  0.078413  0.000000      2.000000
  0.078237  0.078413  0.000000      2.000000
  0.093884  0.078413  0.000000      2.000000
  0.109532  0.078413  0.000000      2.000000
  0.125179  0.078413  0.000000      2.000000
  0.140827  0.078413  0.000000      2.000000
 -0.140827  0.078413  0.000000      2.000000
 -0.125179  0.078413  0.000000      2.000000
 -0.109532  0.078413  0.000000      2.000000
 -0.093884  0.078413  0.000000      2.000000
 -0.078237  0.078413  0.000000      2.000000
 -0.062590  0.078413  0.000000      2.000000
 -0.046942  0.078413  0.000000      2.000000
 -0.031295  0.078413  0.000000      2.000000
 -0.015647  0.078413  0.000000      2.000000
 


--------------------------------------------------------------------------------------------------------




 Dimension of arrays:
   k-points           NKPTS =    105   k-points in BZ     NKDIM =    105   number of bands    NBANDS=     24
   number of dos      NEDOS =    301   number of ions     NIONS =      6
   non local maximal  LDIM  =      6   non local SUM 2l+1 LMDIM =     18
   total plane-waves  NPLWV = 217728
   max r-space proj   IRMAX =      1   max aug-charges    IRDMAX=  35596
   dimension x,y,z NGX =    28 NGY =   48 NGZ =  162
   dimension x,y,z NGXF=    56 NGYF=   96 NGZF=  324
   support grid    NGXF=    56 NGYF=   96 NGZF=  324
   ions per type =               2   2   2
   NGX,Y,Z   is equivalent  to a cutoff of  13.84, 13.77, 13.30 a.u.
   NGXF,Y,Z  is equivalent  to a cutoff of  27.68, 27.53, 26.60 a.u.

 SYSTEM =  unknown system                          
 POSCAR =  Generated by VASPKIT code               

 Startparameter for this run:
   NWRITE =      2    write-flag & timer
   PREC   = accura    normal or accurate (medium, high low for compatibility)
   ISTART =      0    job   : 0-new  1-cont  2-samecut
   ICHARG =      2    charge: 1-file 2-atom 10-const
   ISPIN  =      1    spin polarized calculation?
   LNONCOLLINEAR =      F non collinear calculations
   LSORBIT =      F    spin-orbit coupling
   INIWAV =      1    electr: 0-lowe 1-rand  2-diag
   LASPH  =      F    aspherical Exc in radial PAW
   METAGGA=      F    non-selfconsistent MetaGGA calc.

 Electronic Relaxation 1
   ENCUT  =  600.0 eV  44.10 Ry    6.64 a.u.   6.72 11.58 40.45*2*pi/ulx,y,z
   ENINI  =  600.0     initial cutoff
   ENAUG  =  368.8 eV  augmentation charge cutoff
   NELM   =     60;   NELMIN=  2; NELMDL= -5     # of ELM steps 
   EDIFF  = 0.1E-06   stopping-criterion for ELM
   LREAL  =      F    real-space projection
   NLSPLINE    = F    spline interpolate recip. space projectors
   LCOMPAT=      F    compatible to vasp.4.4
   GGA_COMPAT  = T    GGA compatible to vasp.4.4-vasp.4.6
   LMAXPAW     = -100 max onsite density
   LMAXMIX     =    2 max onsite mixed and CHGCAR
   VOSKOWN=      0    Vosko Wilk Nusair interpolation
   ROPT   =    0.00000   0.00000   0.00000
 Ionic relaxation
   EDIFFG = -.1E-02   stopping-criterion for IOM
   NSW    =    100    number of steps for IOM
   NBLOCK =      1;   KBLOCK =    100    inner block; outer block 
   IBRION =      2    ionic relax: 0-MD 1-quasi-New 2-CG
   NFREE  =      1    steps in history (QN), initial steepest desc. (CG)
   ISIF   =      2    stress and relaxation
   IWAVPR =     11    prediction:  0-non 1-charg 2-wave 3-comb
   ISYM   =      0    0-nonsym 1-usesym 2-fastsym
   LCORR  =      T    Harris-Foulkes like correction to forces

   POTIM  = 0.5000    time-step for ionic-motion
   TEIN   =    0.0    initial temperature
   TEBEG  =    0.0;   TEEND  =   0.0 temperature during run
   SMASS  =  -3.00    Nose mass-parameter (am)
   estimated Nose-frequenzy (Omega)   =  0.10E-29 period in steps =****** mass=  -0.259E-27a.u.
   SCALEE = 1.0000    scale energy and forces
   NPACO  =    256;   APACO  = 16.0  distance and # of slots for P.C.
   PSTRESS=    0.0 pullay stress

  Mass of Ions in am
   POMASS =  95.94 32.07127.60
  Ionic Valenz
   ZVAL   =   6.00  6.00  6.00
  Atomic Wigner-Seitz radii
   RWIGS  =  -1.00 -1.00 -1.00
  virtual crystal weights 
   VCA    =   1.00  1.00  1.00
   NELECT =      36.0000    total number of electrons
   NUPDOWN=      -1.0000    fix difference up-down

 DOS related values:
   EMIN   =  10.00;   EMAX   =-10.00  energy-range for DOS
   EFERMI =   0.00
   ISMEAR =     0;   SIGMA  =   0.10  broadening in eV -4-tet -1-fermi 0-gaus

 Electronic relaxation 2 (details)
   IALGO  =     38    algorithm
   LDIAG  =      T    sub-space diagonalisation (order eigenvalues)
   LSUBROT=      F    optimize rotation matrix (better conditioning)
   TURBO    =      0    0=normal 1=particle mesh
   IRESTART =      0    0=no restart 2=restart with 2 vectors
   NREBOOT  =      0    no. of reboots
   NMIN     =      0    reboot dimension
   EREF     =   0.00    reference energy to select bands
   IMIX   =      4    mixing-type and parameters
     AMIX     =   0.40;   BMIX     =  1.00
     AMIX_MAG =   1.60;   BMIX_MAG =  1.00
     AMIN     =   0.10
     WC   =   100.;   INIMIX=   1;  MIXPRE=   1;  MAXMIX= -45

 Intra band minimization:
   WEIMIN = 0.0010     energy-eigenvalue tresh-hold
   EBREAK =  0.10E-08  absolut break condition
   DEPER  =   0.30     relativ break condition  

   TIME   =   0.40     timestep for ELM

  volume/ion in A,a.u.               =      65.81       444.14
  Fermi-wavevector in a.u.,A,eV,Ry     =   0.736803  1.392356  7.386312  0.542879
  Thomas-Fermi vector in A             =   1.830331
 
 Write flags
   LWAVE        =      F    write WAVECAR
   LDOWNSAMPLE  =      F    k-point downsampling of WAVECAR
   LCHARG       =      T    write CHGCAR
   LVTOT        =      F    write LOCPOT, total local potential
   LVHAR        =      F    write LOCPOT, Hartree potential only
   LELF         =      F    write electronic localiz. function (ELF)
   LORBIT       =      0    0 simple, 1 ext, 2 COOP (PROOUT), +10 PAW based schemes


 Dipole corrections
   LMONO  =      F    monopole corrections only (constant potential shift)
   LDIPOL =      T    correct potential (dipole corrections)
   IDIPOL =      3    1-x, 2-y, 3-z, 4-all directions 
   EPSILON=  1.0000000 bulk dielectric constant

 Exchange correlation treatment:
   GGA     =    PE    GGA type
   LEXCH   =     8    internal setting for exchange type
   VOSKOWN=      0    Vosko Wilk Nusair interpolation
   LHFCALC =     F    Hartree Fock is set to
   LHFONE  =     F    Hartree Fock one center treatment
   AEXX    =    0.0000 exact exchange contribution

 Linear response parameters
   LEPSILON=     F    determine dielectric tensor
   LRPA    =     F    only Hartree local field effects (RPA)
   LNABLA  =     F    use nabla operator in PAW spheres
   LVEL    =     F    velocity operator in full k-point grid
   LINTERFAST=   F  fast interpolation
   KINTER  =     0    interpolate to denser k-point grid
   CSHIFT  =0.1000    complex shift for real part using Kramers Kronig
   OMEGAMAX=  -1.0    maximum frequency
   DEG_THRESHOLD= 0.2000000E-02 threshold for treating states as degnerate
   RTIME   =   -0.100 relaxation time in fs
  (WPLASMAI=    0.000 imaginary part of plasma frequency in eV, 0.658/RTIME)
   DFIELD  = 0.0000000 0.0000000 0.0000000 field for delta impulse in time
 
 Orbital magnetization related:
   ORBITALMAG=     F  switch on orbital magnetization
   LCHIMAG   =     F  perturbation theory with respect to B field
   DQ        =  0.001000  dq finite difference perturbation B field
   LLRAUG    =     F  two centre corrections for induced B field



--------------------------------------------------------------------------------------------------------


 conjugate gradient relaxation of ions
 charge density and potential will be updated during run
 non-spin polarized calculation
 Variant of blocked Davidson
 Davidson routine will perform the subspace rotation
 perform sub-space diagonalisation
    after iterative eigenvector-optimisation
 modified Broyden-mixing scheme, WC =      100.0
 initial mixing is a Kerker type mixing with AMIX =  0.4000 and BMIX =      1.0000
 Hartree-type preconditioning will be used
 using additional bands            6
 reciprocal scheme for non local part
 use partial core corrections
 calculate Harris-corrections to forces 
   (improved forces if not selfconsistent)
 use gradient corrections 
 use of overlap-Matrix (Vanderbilt PP)
 Gauss-broadening in eV      SIGMA  =   0.10


--------------------------------------------------------------------------------------------------------


  energy-cutoff  :      600.00
  volume of cell :      394.89
      direct lattice vectors                 reciprocal lattice vectors
     3.363599539  0.000000000  0.000000000     0.297300552  0.000000000  0.000000000
     0.000000000  5.796796198  0.000000000     0.000000000  0.172509084  0.000000000
     0.000000000  0.000000000 20.252588272     0.000000000  0.000000000  0.049376405

  length of vectors
     3.363599539  5.796796198 20.252588272     0.297300552  0.172509084  0.049376405


 
 k-points in units of 2pi/SCALE and weight: K-Spacing Value to Generate K-Mesh: 0.01
   0.00000000  0.00000000  0.00000000       0.005
   0.01564740  0.00000000  0.00000000       0.010
   0.03129479  0.00000000  0.00000000       0.010
   0.04694219  0.00000000  0.00000000       0.010
   0.06258959  0.00000000  0.00000000       0.010
   0.07823699  0.00000000  0.00000000       0.010
   0.09388438  0.00000000  0.00000000       0.010
   0.10953178  0.00000000  0.00000000       0.010
   0.12517918  0.00000000  0.00000000       0.010
   0.14082658  0.00000000  0.00000000       0.010
   0.00000000  0.01568264  0.00000000       0.010
   0.01564740  0.01568264  0.00000000       0.010
   0.03129479  0.01568264  0.00000000       0.010
   0.04694219  0.01568264  0.00000000       0.010
   0.06258959  0.01568264  0.00000000       0.010
   0.07823699  0.01568264  0.00000000       0.010
   0.09388438  0.01568264  0.00000000       0.010
   0.10953178  0.01568264  0.00000000       0.010
   0.12517918  0.01568264  0.00000000       0.010
   0.14082658  0.01568264  0.00000000       0.010
  -0.14082658  0.01568264  0.00000000       0.010
  -0.12517918  0.01568264  0.00000000       0.010
  -0.10953178  0.01568264  0.00000000       0.010
  -0.09388438  0.01568264  0.00000000       0.010
  -0.07823699  0.01568264  0.00000000       0.010
  -0.06258959  0.01568264  0.00000000       0.010
  -0.04694219  0.01568264  0.00000000       0.010
  -0.03129479  0.01568264  0.00000000       0.010
  -0.01564740  0.01568264  0.00000000       0.010
   0.00000000  0.03136529  0.00000000       0.010
   0.01564740  0.03136529  0.00000000       0.010
   0.03129479  0.03136529  0.00000000       0.010
   0.04694219  0.03136529  0.00000000       0.010
   0.06258959  0.03136529  0.00000000       0.010
   0.07823699  0.03136529  0.00000000       0.010
   0.09388438  0.03136529  0.00000000       0.010
   0.10953178  0.03136529  0.00000000       0.010
   0.12517918  0.03136529  0.00000000       0.010
   0.14082658  0.03136529  0.00000000       0.010
  -0.14082658  0.03136529  0.00000000       0.010
  -0.12517918  0.03136529  0.00000000       0.010
  -0.10953178  0.03136529  0.00000000       0.010
  -0.09388438  0.03136529  0.00000000       0.010
  -0.07823699  0.03136529  0.00000000       0.010
  -0.06258959  0.03136529  0.00000000       0.010
  -0.04694219  0.03136529  0.00000000       0.010
  -0.03129479  0.03136529  0.00000000       0.010
  -0.01564740  0.03136529  0.00000000       0.010
   0.00000000  0.04704793  0.00000000       0.010
   0.01564740  0.04704793  0.00000000       0.010
   0.03129479  0.04704793  0.00000000       0.010
   0.04694219  0.04704793  0.00000000       0.010
   0.06258959  0.04704793  0.00000000       0.010
   0.07823699  0.04704793  0.00000000       0.010
   0.09388438  0.04704793  0.00000000       0.010
   0.10953178  0.04704793  0.00000000       0.010
   0.12517918  0.04704793  0.00000000       0.010
   0.14082658  0.04704793  0.00000000       0.010
  -0.14082658  0.04704793  0.00000000       0.010
  -0.12517918  0.04704793  0.00000000       0.010
  -0.10953178  0.04704793  0.00000000       0.010
  -0.09388438  0.04704793  0.00000000       0.010
  -0.07823699  0.04704793  0.00000000       0.010
  -0.06258959  0.04704793  0.00000000       0.010
  -0.04694219  0.04704793  0.00000000       0.010
  -0.03129479  0.04704793  0.00000000       0.010
  -0.01564740  0.04704793  0.00000000       0.010
   0.00000000  0.06273058  0.00000000       0.010
   0.01564740  0.06273058  0.00000000       0.010
   0.03129479  0.06273058  0.00000000       0.010
   0.04694219  0.06273058  0.00000000       0.010
   0.06258959  0.06273058  0.00000000       0.010
   0.07823699  0.06273058  0.00000000       0.010
   0.09388438  0.06273058  0.00000000       0.010
   0.10953178  0.06273058  0.00000000       0.010
   0.12517918  0.06273058  0.00000000       0.010
   0.14082658  0.06273058  0.00000000       0.010
  -0.14082658  0.06273058  0.00000000       0.010
  -0.12517918  0.06273058  0.00000000       0.010
  -0.10953178  0.06273058  0.00000000       0.010
  -0.09388438  0.06273058  0.00000000       0.010
  -0.07823699  0.06273058  0.00000000       0.010
  -0.06258959  0.06273058  0.00000000       0.010
  -0.04694219  0.06273058  0.00000000       0.010
  -0.03129479  0.06273058  0.00000000       0.010
  -0.01564740  0.06273058  0.00000000       0.010
   0.00000000  0.07841322  0.00000000       0.010
   0.01564740  0.07841322  0.00000000       0.010
   0.03129479  0.07841322  0.00000000       0.010
   0.04694219  0.07841322  0.00000000       0.010
   0.06258959  0.07841322  0.00000000       0.010
   0.07823699  0.07841322  0.00000000       0.010
   0.09388438  0.07841322  0.00000000       0.010
   0.10953178  0.07841322  0.00000000       0.010
   0.12517918  0.07841322  0.00000000       0.010
   0.14082658  0.07841322  0.00000000       0.010
  -0.14082658  0.07841322  0.00000000       0.010
  -0.12517918  0.07841322  0.00000000       0.010
  -0.10953178  0.07841322  0.00000000       0.010
  -0.09388438  0.07841322  0.00000000       0.010
  -0.07823699  0.07841322  0.00000000       0.010
  -0.06258959  0.07841322  0.00000000       0.010
  -0.04694219  0.07841322  0.00000000       0.010
  -0.03129479  0.07841322  0.00000000       0.010
  -0.01564740  0.07841322  0.00000000       0.010
 
 k-points in reciprocal lattice and weights: K-Spacing Value to Generate K-Mesh: 0.01
   0.00000000  0.00000000  0.00000000       0.005
   0.05263158  0.00000000  0.00000000       0.010
   0.10526316  0.00000000  0.00000000       0.010
   0.15789474  0.00000000  0.00000000       0.010
   0.21052632  0.00000000  0.00000000       0.010
   0.26315789  0.00000000  0.00000000       0.010
   0.31578947  0.00000000  0.00000000       0.010
   0.36842105  0.00000000  0.00000000       0.010
   0.42105263  0.00000000  0.00000000       0.010
   0.47368421  0.00000000  0.00000000       0.010
   0.00000000  0.09090909  0.00000000       0.010
   0.05263158  0.09090909  0.00000000       0.010
   0.10526316  0.09090909  0.00000000       0.010
   0.15789474  0.09090909  0.00000000       0.010
   0.21052632  0.09090909  0.00000000       0.010
   0.26315789  0.09090909  0.00000000       0.010
   0.31578947  0.09090909  0.00000000       0.010
   0.36842105  0.09090909  0.00000000       0.010
   0.42105263  0.09090909  0.00000000       0.010
   0.47368421  0.09090909  0.00000000       0.010
  -0.47368421  0.09090909  0.00000000       0.010
  -0.42105263  0.09090909  0.00000000       0.010
  -0.36842105  0.09090909  0.00000000       0.010
  -0.31578947  0.09090909  0.00000000       0.010
  -0.26315789  0.09090909  0.00000000       0.010
  -0.21052632  0.09090909  0.00000000       0.010
  -0.15789474  0.09090909  0.00000000       0.010
  -0.10526316  0.09090909  0.00000000       0.010
  -0.05263158  0.09090909  0.00000000       0.010
   0.00000000  0.18181818  0.00000000       0.010
   0.05263158  0.18181818  0.00000000       0.010
   0.10526316  0.18181818  0.00000000       0.010
   0.15789474  0.18181818  0.00000000       0.010
   0.21052632  0.18181818  0.00000000       0.010
   0.26315789  0.18181818  0.00000000       0.010
   0.31578947  0.18181818  0.00000000       0.010
   0.36842105  0.18181818  0.00000000       0.010
   0.42105263  0.18181818  0.00000000       0.010
   0.47368421  0.18181818  0.00000000       0.010
  -0.47368421  0.18181818  0.00000000       0.010
  -0.42105263  0.18181818  0.00000000       0.010
  -0.36842105  0.18181818  0.00000000       0.010
  -0.31578947  0.18181818  0.00000000       0.010
  -0.26315789  0.18181818  0.00000000       0.010
  -0.21052632  0.18181818  0.00000000       0.010
  -0.15789474  0.18181818  0.00000000       0.010
  -0.10526316  0.18181818  0.00000000       0.010
  -0.05263158  0.18181818  0.00000000       0.010
   0.00000000  0.27272727  0.00000000       0.010
   0.05263158  0.27272727  0.00000000       0.010
   0.10526316  0.27272727  0.00000000       0.010
   0.15789474  0.27272727  0.00000000       0.010
   0.21052632  0.27272727  0.00000000       0.010
   0.26315789  0.27272727  0.00000000       0.010
   0.31578947  0.27272727  0.00000000       0.010
   0.36842105  0.27272727  0.00000000       0.010
   0.42105263  0.27272727  0.00000000       0.010
   0.47368421  0.27272727  0.00000000       0.010
  -0.47368421  0.27272727  0.00000000       0.010
  -0.42105263  0.27272727  0.00000000       0.010
  -0.36842105  0.27272727  0.00000000       0.010
  -0.31578947  0.27272727  0.00000000       0.010
  -0.26315789  0.27272727  0.00000000       0.010
  -0.21052632  0.27272727  0.00000000       0.010
  -0.15789474  0.27272727  0.00000000       0.010
  -0.10526316  0.27272727  0.00000000       0.010
  -0.05263158  0.27272727  0.00000000       0.010
   0.00000000  0.36363636  0.00000000       0.010
   0.05263158  0.36363636  0.00000000       0.010
   0.10526316  0.36363636  0.00000000       0.010
   0.15789474  0.36363636  0.00000000       0.010
   0.21052632  0.36363636  0.00000000       0.010
   0.26315789  0.36363636  0.00000000       0.010
   0.31578947  0.36363636  0.00000000       0.010
   0.36842105  0.36363636  0.00000000       0.010
   0.42105263  0.36363636  0.00000000       0.010
   0.47368421  0.36363636  0.00000000       0.010
  -0.47368421  0.36363636  0.00000000       0.010
  -0.42105263  0.36363636  0.00000000       0.010
  -0.36842105  0.36363636  0.00000000       0.010
  -0.31578947  0.36363636  0.00000000       0.010
  -0.26315789  0.36363636  0.00000000       0.010
  -0.21052632  0.36363636  0.00000000       0.010
  -0.15789474  0.36363636  0.00000000       0.010
  -0.10526316  0.36363636  0.00000000       0.010
  -0.05263158  0.36363636  0.00000000       0.010
   0.00000000  0.45454545  0.00000000       0.010
   0.05263158  0.45454545  0.00000000       0.010
   0.10526316  0.45454545  0.00000000       0.010
   0.15789474  0.45454545  0.00000000       0.010
   0.21052632  0.45454545  0.00000000       0.010
   0.26315789  0.45454545  0.00000000       0.010
   0.31578947  0.45454545  0.00000000       0.010
   0.36842105  0.45454545  0.00000000       0.010
   0.42105263  0.45454545  0.00000000       0.010
   0.47368421  0.45454545  0.00000000       0.010
  -0.47368421  0.45454545  0.00000000       0.010
  -0.42105263  0.45454545  0.00000000       0.010
  -0.36842105  0.45454545  0.00000000       0.010
  -0.31578947  0.45454545  0.00000000       0.010
  -0.26315789  0.45454545  0.00000000       0.010
  -0.21052632  0.45454545  0.00000000       0.010
  -0.15789474  0.45454545  0.00000000       0.010
  -0.10526316  0.45454545  0.00000000       0.010
  -0.05263158  0.45454545  0.00000000       0.010
 
 position of ions in fractional coordinates (direct lattice) 
   0.49999997  0.16666654  0.50703967
   0.00000000  0.66666651  0.50703967
   0.49999997  0.83333325  0.57974952
   0.00000000  0.33333322  0.57974952
   0.50000000  0.83333325  0.41321075
   0.00000000  0.33333325  0.41321075
 
 position of ions in cartesian coordinates  (Angst):
   1.68179967  0.96613195 10.26886559
   0.00000000  3.86452988 10.26886559
   1.68179967  4.83066304 11.74142843
   0.00000000  1.93226477 11.74142843
   1.68179977  4.83066304  8.36858719
   0.00000000  1.93226494  8.36858719
 


--------------------------------------------------------------------------------------------------------


 k-point  1 :   0.0000 0.0000 0.0000  plane waves:   13211
 k-point  2 :   0.0526 0.0000 0.0000  plane waves:   13237
 k-point  3 :   0.1053 0.0000 0.0000  plane waves:   13207
 k-point  4 :   0.1579 0.0000 0.0000  plane waves:   13197
 k-point  5 :   0.2105 0.0000 0.0000  plane waves:   13201
 k-point  6 :   0.2632 0.0000 0.0000  plane waves:   13167
 k-point  7 :   0.3158 0.0000 0.0000  plane waves:   13190
 k-point  8 :   0.3684 0.0000 0.0000  plane waves:   13186
 k-point  9 :   0.4211 0.0000 0.0000  plane waves:   13194
 k-point 10 :   0.4737 0.0000 0.0000  plane waves:   13166
 k-point 11 :   0.0000 0.0909 0.0000  plane waves:   13219
 k-point 12 :   0.0526 0.0909 0.0000  plane waves:   13206
 k-point 13 :   0.1053 0.0909 0.0000  plane waves:   13205
 k-point 14 :   0.1579 0.0909 0.0000  plane waves:   13195
 k-point 15 :   0.2105 0.0909 0.0000  plane waves:   13203
 k-point 16 :   0.2632 0.0909 0.0000  plane waves:   13173
 k-point 17 :   0.3158 0.0909 0.0000  plane waves:   13163
 k-point 18 :   0.3684 0.0909 0.0000  plane waves:   13176
 k-point 19 :   0.4211 0.0909 0.0000  plane waves:   13189
 k-point 20 :   0.4737 0.0909 0.0000  plane waves:   13175
 k-point 21 :  -0.4737 0.0909 0.0000  plane waves:   13175
 k-point 22 :  -0.4211 0.0909 0.0000  plane waves:   13189
 k-point 23 :  -0.3684 0.0909 0.0000  plane waves:   13176
 k-point 24 :  -0.3158 0.0909 0.0000  plane waves:   13163
 k-point 25 :  -0.2632 0.0909 0.0000  plane waves:   13173
 k-point 26 :  -0.2105 0.0909 0.0000  plane waves:   13203
 k-point 27 :  -0.1579 0.0909 0.0000  plane waves:   13195
 k-point 28 :  -0.1053 0.0909 0.0000  plane waves:   13205
 k-point 29 :  -0.0526 0.0909 0.0000  plane waves:   13206
 k-point 30 :   0.0000 0.1818 0.0000  plane waves:   13209
 k-point 31 :   0.0526 0.1818 0.0000  plane waves:   13213
 k-point 32 :   0.1053 0.1818 0.0000  plane waves:   13198
 k-point 33 :   0.1579 0.1818 0.0000  plane waves:   13179
 k-point 34 :   0.2105 0.1818 0.0000  plane waves:   13179
 k-point 35 :   0.2632 0.1818 0.0000  plane waves:   13153
 k-point 36 :   0.3158 0.1818 0.0000  plane waves:   13167
 k-point 37 :   0.3684 0.1818 0.0000  plane waves:   13178
 k-point 38 :   0.4211 0.1818 0.0000  plane waves:   13180
 k-point 39 :   0.4737 0.1818 0.0000  plane waves:   13187
 k-point 40 :  -0.4737 0.1818 0.0000  plane waves:   13187
 k-point 41 :  -0.4211 0.1818 0.0000  plane waves:   13180
 k-point 42 :  -0.3684 0.1818 0.0000  plane waves:   13178
 k-point 43 :  -0.3158 0.1818 0.0000  plane waves:   13167
 k-point 44 :  -0.2632 0.1818 0.0000  plane waves:   13153
 k-point 45 :  -0.2105 0.1818 0.0000  plane waves:   13179
 k-point 46 :  -0.1579 0.1818 0.0000  plane waves:   13179
 k-point 47 :  -0.1053 0.1818 0.0000  plane waves:   13198
 k-point 48 :  -0.0526 0.1818 0.0000  plane waves:   13213
 k-point 49 :   0.0000 0.2727 0.0000  plane waves:   13177
 k-point 50 :   0.0526 0.2727 0.0000  plane waves:   13188
 k-point 51 :   0.1053 0.2727 0.0000  plane waves:   13187
 k-point 52 :   0.1579 0.2727 0.0000  plane waves:   13192
 k-point 53 :   0.2105 0.2727 0.0000  plane waves:   13191
 k-point 54 :   0.2632 0.2727 0.0000  plane waves:   13183
 k-point 55 :   0.3158 0.2727 0.0000  plane waves:   13152
 k-point 56 :   0.3684 0.2727 0.0000  plane waves:   13171
 k-point 57 :   0.4211 0.2727 0.0000  plane waves:   13173
 k-point 58 :   0.4737 0.2727 0.0000  plane waves:   13174
 k-point 59 :  -0.4737 0.2727 0.0000  plane waves:   13174
 k-point 60 :  -0.4211 0.2727 0.0000  plane waves:   13173
 k-point 61 :  -0.3684 0.2727 0.0000  plane waves:   13171
 k-point 62 :  -0.3158 0.2727 0.0000  plane waves:   13152
 k-point 63 :  -0.2632 0.2727 0.0000  plane waves:   13183
 k-point 64 :  -0.2105 0.2727 0.0000  plane waves:   13191
 k-point 65 :  -0.1579 0.2727 0.0000  plane waves:   13192
 k-point 66 :  -0.1053 0.2727 0.0000  plane waves:   13187
 k-point 67 :  -0.0526 0.2727 0.0000  plane waves:   13188
 k-point 68 :   0.0000 0.3636 0.0000  plane waves:   13155
 k-point 69 :   0.0526 0.3636 0.0000  plane waves:   13169
 k-point 70 :   0.1053 0.3636 0.0000  plane waves:   13179
 k-point 71 :   0.1579 0.3636 0.0000  plane waves:   13173
 k-point 72 :   0.2105 0.3636 0.0000  plane waves:   13174
 k-point 73 :   0.2632 0.3636 0.0000  plane waves:   13153
 k-point 74 :   0.3158 0.3636 0.0000  plane waves:   13149
 k-point 75 :   0.3684 0.3636 0.0000  plane waves:   13165
 k-point 76 :   0.4211 0.3636 0.0000  plane waves:   13185
 k-point 77 :   0.4737 0.3636 0.0000  plane waves:   13186
 k-point 78 :  -0.4737 0.3636 0.0000  plane waves:   13186
 k-point 79 :  -0.4211 0.3636 0.0000  plane waves:   13185
 k-point 80 :  -0.3684 0.3636 0.0000  plane waves:   13165
 k-point 81 :  -0.3158 0.3636 0.0000  plane waves:   13149
 k-point 82 :  -0.2632 0.3636 0.0000  plane waves:   13153
 k-point 83 :  -0.2105 0.3636 0.0000  plane waves:   13174
 k-point 84 :  -0.1579 0.3636 0.0000  plane waves:   13173
 k-point 85 :  -0.1053 0.3636 0.0000  plane waves:   13179
 k-point 86 :  -0.0526 0.3636 0.0000  plane waves:   13169
 k-point 87 :   0.0000 0.4545 0.0000  plane waves:   13184
 k-point 88 :   0.0526 0.4545 0.0000  plane waves:   13159
 k-point 89 :   0.1053 0.4545 0.0000  plane waves:   13136
 k-point 90 :   0.1579 0.4545 0.0000  plane waves:   13147
 k-point 91 :   0.2105 0.4545 0.0000  plane waves:   13150
 k-point 92 :   0.2632 0.4545 0.0000  plane waves:   13161
 k-point 93 :   0.3158 0.4545 0.0000  plane waves:   13165
 k-point 94 :   0.3684 0.4545 0.0000  plane waves:   13181
 k-point 95 :   0.4211 0.4545 0.0000  plane waves:   13174
 k-point 96 :   0.4737 0.4545 0.0000  plane waves:   13215
 k-point 97 :  -0.4737 0.4545 0.0000  plane waves:   13215
 k-point 98 :  -0.4211 0.4545 0.0000  plane waves:   13174
 k-point 99 :  -0.3684 0.4545 0.0000  plane waves:   13181
 k-point ** :  -0.3158 0.4545 0.0000  plane waves:   13165
 k-point ** :  -0.2632 0.4545 0.0000  plane waves:   13161
 k-point ** :  -0.2105 0.4545 0.0000  plane waves:   13150
 k-point ** :  -0.1579 0.4545 0.0000  plane waves:   13147
 k-point ** :  -0.1053 0.4545 0.0000  plane waves:   13136
 k-point ** :  -0.0526 0.4545 0.0000  plane waves:   13159

 maximum and minimum number of plane-waves per node :       575      526

 maximum number of plane-waves:     13237
 maximum index in each direction: 
   IXMAX=    7   IYMAX=   11   IZMAX=   40
   IXMIN=   -7   IYMIN=  -12   IZMIN=  -40


 parallel 3D FFT for wavefunctions:
    minimum data exchange during FFTs selected (reduces bandwidth)
 parallel 3D FFT for charge:
    minimum data exchange during FFTs selected (reduces bandwidth)


 total amount of memory used by VASP MPI-rank0    62837. kBytes
=======================================================================

   base      :      30000. kBytes
   nonl-proj :      25819. kBytes
   fftplans  :       1397. kBytes
   grid      :       2623. kBytes
   one-center:         15. kBytes
   wavefun   :       2983. kBytes
 
     INWAV:  cpu time    0.0000: real time    0.0000
 Broyden mixing: mesh for mixing (old mesh)
   NGX = 13   NGY = 23   NGZ = 81
  (NGX  = 56   NGY  = 96   NGZ  =324)
  gives a total of  24219 points

 initial charge density was supplied:
 charge density of overlapping atoms calculated
 number of electron      36.0000000 magnetization 
 keeping initial charge density in first step


--------------------------------------------------------------------------------------------------------


 Maximum index for augmentation-charges         1259 (set IRDMAX)


--------------------------------------------------------------------------------------------------------


 First call to EWALD:  gamma=   0.242
 Maximum number of real-space cells 5x 3x 1
 Maximum number of reciprocal cells 2x 2x 7

    FEWALD:  cpu time    0.0014: real time    0.0014


--------------------------------------- Iteration      1(   1)  ---------------------------------------


    POTLOK:  cpu time    0.0183: real time    0.0376
    SETDIJ:  cpu time    0.0054: real time    0.0054
     EDDAV:  cpu time    1.1987: real time    1.2078
       DOS:  cpu time    0.0015: real time    0.0015
    --------------------------------------------
      LOOP:  cpu time    1.2240: real time    1.2524

 eigenvalue-minimisations  :  5040
 total energy-change (2. order) : 0.2740399E+03  (-0.1304914E+04)
 number of electron      36.0000000 magnetization 
 augmentation part       36.0000000 magnetization 

 DIPCOR: dipole corrections for dipol
 direction  3 min pos     1,
 dipolmoment           0.000000      0.000000      0.000002 electrons x Angstroem
 Tr[quadrupol]      -123.731660

 energy correction for charged system         0.000000 eV
 dipol+quadrupol energy correction           -0.000000 eV
 added-field ion interaction          0.000000 eV  (added to PSCEN)


 Free energy of the ion-electron system (eV)
  ---------------------------------------------------
  alpha Z        PSCENC =        26.23545353
  Ewald energy   TEWEN  =      4206.94280748
  -Hartree energ DENC   =     -5528.08969624
  -exchange      EXHF   =         0.00000000
  -V(xc)+E(xc)   XCENC  =      -153.01454018
  PAW double counting   =      1381.62273368    -1155.94054365
  entropy T*S    EENTRO =        -0.01718075
  eigenvalues    EBANDS =        61.07907947
  atomic energy  EATOM  =      1435.22174307
  Solvation  Ediel_sol  =         0.00000000
  ---------------------------------------------------
  free energy    TOTEN  =       274.03985640 eV

  energy without entropy =      274.05703715  energy(sigma->0) =      274.04844678


--------------------------------------------------------------------------------------------------------




--------------------------------------- Iteration      1(   2)  ---------------------------------------


     EDDAV:  cpu time    1.4027: real time    1.4033
       DOS:  cpu time    0.0015: real time    0.0014
    --------------------------------------------
      LOOP:  cpu time    1.4041: real time    1.4047

 eigenvalue-minimisations  :  7856
 total energy-change (2. order) :-0.2804951E+03  (-0.2723865E+03)
 number of electron      36.0000000 magnetization 
 augmentation part       36.0000000 magnetization 

 DIPCOR: dipole corrections for dipol
 direction  3 min pos     1,
 dipolmoment           0.000000      0.000000      0.000002 electrons x Angstroem
 Tr[quadrupol]      -123.731660

 energy correction for charged system         0.000000 eV
 dipol+quadrupol energy correction           -0.000000 eV
 added-field ion interaction          0.000000 eV  (added to PSCEN)


 Free energy of the ion-electron system (eV)
  ---------------------------------------------------
  alpha Z        PSCENC =        26.23545353
  Ewald energy   TEWEN  =      4206.94280748
  -Hartree energ DENC   =     -5528.08969624
  -exchange      EXHF   =         0.00000000
  -V(xc)+E(xc)   XCENC  =      -153.01454018
  PAW double counting   =      1381.62273368    -1155.94054365
  entropy T*S    EENTRO =        -0.00103652
  eigenvalues    EBANDS =      -219.43219996
  atomic energy  EATOM  =      1435.22174307
  Solvation  Ediel_sol  =         0.00000000
  ---------------------------------------------------
  free energy    TOTEN  =        -6.45527880 eV

  energy without entropy =       -6.45424228  energy(sigma->0) =       -6.45476054


--------------------------------------------------------------------------------------------------------




--------------------------------------- Iteration      1(   3)  ---------------------------------------


     EDDAV:  cpu time    1.2842: real time    1.2847
       DOS:  cpu time    0.0011: real time    0.0010
    --------------------------------------------
      LOOP:  cpu time    1.2853: real time    1.2857

 eigenvalue-minimisations  :  6648
 total energy-change (2. order) :-0.3428061E+02  (-0.3398921E+02)
 number of electron      36.0000000 magnetization 
 augmentation part       36.0000000 magnetization 

 DIPCOR: dipole corrections for dipol
 direction  3 min pos     1,
 dipolmoment           0.000000      0.000000      0.000002 electrons x Angstroem
 Tr[quadrupol]      -123.731660

 energy correction for charged system         0.000000 eV
 dipol+quadrupol energy correction           -0.000000 eV
 added-field ion interaction          0.000000 eV  (added to PSCEN)


 Free energy of the ion-electron system (eV)
  ---------------------------------------------------
  alpha Z        PSCENC =        26.23545353
  Ewald energy   TEWEN  =      4206.94280748
  -Hartree energ DENC   =     -5528.08969624
  -exchange      EXHF   =         0.00000000
  -V(xc)+E(xc)   XCENC  =      -153.01454018
  PAW double counting   =      1381.62273368    -1155.94054365
  entropy T*S    EENTRO =        -0.00000000
  eigenvalues    EBANDS =      -253.71384836
  atomic energy  EATOM  =      1435.22174307
  Solvation  Ediel_sol  =         0.00000000
  ---------------------------------------------------
  free energy    TOTEN  =       -40.73589068 eV

  energy without entropy =      -40.73589068  energy(sigma->0) =      -40.73589068


--------------------------------------------------------------------------------------------------------




--------------------------------------- Iteration      1(   4)  ---------------------------------------


     EDDAV:  cpu time    1.3329: real time    1.3334
       DOS:  cpu time    0.0011: real time    0.0011
    --------------------------------------------
      LOOP:  cpu time    1.3340: real time    1.3344

 eigenvalue-minimisations  :  7248
 total energy-change (2. order) :-0.1130399E+01  (-0.1125376E+01)
 number of electron      36.0000000 magnetization 
 augmentation part       36.0000000 magnetization 

 DIPCOR: dipole corrections for dipol
 direction  3 min pos     1,
 dipolmoment           0.000000      0.000000      0.000002 electrons x Angstroem
 Tr[quadrupol]      -123.731660

 energy correction for charged system         0.000000 eV
 dipol+quadrupol energy correction           -0.000000 eV
 added-field ion interaction          0.000000 eV  (added to PSCEN)


 Free energy of the ion-electron system (eV)
  ---------------------------------------------------
  alpha Z        PSCENC =        26.23545353
  Ewald energy   TEWEN  =      4206.94280748
  -Hartree energ DENC   =     -5528.08969624
  -exchange      EXHF   =         0.00000000
  -V(xc)+E(xc)   XCENC  =      -153.01454018
  PAW double counting   =      1381.62273368    -1155.94054365
  entropy T*S    EENTRO =        -0.00000000
  eigenvalues    EBANDS =      -254.84424762
  atomic energy  EATOM  =      1435.22174307
  Solvation  Ediel_sol  =         0.00000000
  ---------------------------------------------------
  free energy    TOTEN  =       -41.86628994 eV

  energy without entropy =      -41.86628994  energy(sigma->0) =      -41.86628994


--------------------------------------------------------------------------------------------------------




--------------------------------------- Iteration      1(   5)  ---------------------------------------


     EDDAV:  cpu time    1.3506: real time    1.3510
       DOS:  cpu time    0.0012: real time    0.0012
    CHARGE:  cpu time    0.0421: real time    0.0421
    MIXING:  cpu time    0.0006: real time    0.0006
    --------------------------------------------
      LOOP:  cpu time    1.3944: real time    1.3948

 eigenvalue-minimisations  :  7536
 total energy-change (2. order) :-0.3767999E-01  (-0.3766309E-01)
 number of electron      35.9999999 magnetization 
 augmentation part       -2.3319760 magnetization 

 DIPCOR: dipole corrections for dipol
 direction  3 min pos     1,
 dipolmoment           0.000000      0.000000      0.000002 electrons x Angstroem
 Tr[quadrupol]      -123.731660

 energy correction for charged system         0.000000 eV
 dipol+quadrupol energy correction           -0.000000 eV
 added-field ion interaction          0.000000 eV  (added to PSCEN)


 Broyden mixing:
  rms(total) = 0.27246E+01    rms(broyden)= 0.27246E+01
  rms(prec ) = 0.27645E+01
  weight for this iteration     100.00

 Free energy of the ion-electron system (eV)
  ---------------------------------------------------
  alpha Z        PSCENC =        26.23545353
  Ewald energy   TEWEN  =      4206.94280748
  -Hartree energ DENC   =     -5528.08969624
  -exchange      EXHF   =         0.00000000
  -V(xc)+E(xc)   XCENC  =      -153.01454018
  PAW double counting   =      1381.62273368    -1155.94054365
  entropy T*S    EENTRO =        -0.00000000
  eigenvalues    EBANDS =      -254.88192761
  atomic energy  EATOM  =      1435.22174307
  Solvation  Ediel_sol  =         0.00000000
  ---------------------------------------------------
  free energy    TOTEN  =       -41.90396993 eV

  energy without entropy =      -41.90396993  energy(sigma->0) =      -41.90396993


--------------------------------------------------------------------------------------------------------




--------------------------------------- Iteration      1(   6)  ---------------------------------------


    POTLOK:  cpu time    0.0126: real time    0.0126
    SETDIJ:  cpu time    0.0021: real time    0.0021
     EDDAV:  cpu time    1.3103: real time    1.3108
       DOS:  cpu time    0.0015: real time    0.0015
    CHARGE:  cpu time    0.0416: real time    0.0416
    MIXING:  cpu time    0.0004: real time    0.0004
    --------------------------------------------
      LOOP:  cpu time    1.3684: real time    1.3689

 eigenvalue-minimisations  :  7168
 total energy-change (2. order) : 0.1942379E+01  (-0.1166431E+01)
 number of electron      36.0000000 magnetization 
 augmentation part       -1.4235087 magnetization 

 DIPCOR: dipole corrections for dipol
 direction  3 min pos     1,
 dipolmoment           0.000000      0.000000      0.189911 electrons x Angstroem
 Tr[quadrupol]      -123.781995

 energy correction for charged system         0.000000 eV
 dipol+quadrupol energy correction           -0.008263 eV
 added-field ion interaction          0.000001 eV  (added to PSCEN)


 Broyden mixing:
  rms(total) = 0.11797E+01    rms(broyden)= 0.11797E+01
  rms(prec ) = 0.12115E+01
  weight for this iteration     100.00

 eigenvalues of (default mixing * dielectric matrix)
  average eigenvalue GAMMA=   1.2238
  1.2238

 Free energy of the ion-electron system (eV)
  ---------------------------------------------------
  alpha Z        PSCENC =        26.22719132
  Ewald energy   TEWEN  =      4206.94280748
  -Hartree energ DENC   =     -5527.82081548
  -exchange      EXHF   =         0.00000000
  -V(xc)+E(xc)   XCENC  =      -151.75254167
  PAW double counting   =      1942.62045728    -1718.44754905
  entropy T*S    EENTRO =        -0.00000008
  eigenvalues    EBANDS =      -252.95288389
  atomic energy  EATOM  =      1435.22174307
  Solvation  Ediel_sol  =         0.00000000
  ---------------------------------------------------
  free energy    TOTEN  =       -39.96159103 eV

  energy without entropy =      -39.96159095  energy(sigma->0) =      -39.96159099


--------------------------------------------------------------------------------------------------------




--------------------------------------- Iteration      1(   7)  ---------------------------------------


    POTLOK:  cpu time    0.0124: real time    0.0124
    SETDIJ:  cpu time    0.0020: real time    0.0020
     EDDAV:  cpu time    1.3080: real time    1.3086
       DOS:  cpu time    0.0012: real time    0.0012
    CHARGE:  cpu time    0.0418: real time    0.0418
    MIXING:  cpu time    0.0004: real time    0.0004
    --------------------------------------------
      LOOP:  cpu time    1.3658: real time    1.3664

 eigenvalue-minimisations  :  6864
 total energy-change (2. order) : 0.1859880E+00  (-0.6648570E+00)
 number of electron      36.0000000 magnetization 
 augmentation part       -2.0144764 magnetization 

 DIPCOR: dipole corrections for dipol
 direction  3 min pos     1,
 dipolmoment           0.000000      0.000000      0.183611 electrons x Angstroem
 Tr[quadrupol]      -124.547896

 energy correction for charged system         0.000000 eV
 dipol+quadrupol energy correction           -0.007724 eV
 added-field ion interaction          0.000001 eV  (added to PSCEN)


 Broyden mixing:
  rms(total) = 0.72522E+00    rms(broyden)= 0.72522E+00
  rms(prec ) = 0.75746E+00
  weight for this iteration     100.00

 eigenvalues of (default mixing * dielectric matrix)
  average eigenvalue GAMMA=   1.2108
  1.8051  0.6166

 Free energy of the ion-electron system (eV)
  ---------------------------------------------------
  alpha Z        PSCENC =        26.22773045
  Ewald energy   TEWEN  =      4206.94280748
  -Hartree energ DENC   =     -5543.08747451
  -exchange      EXHF   =         0.00000000
  -V(xc)+E(xc)   XCENC  =      -151.91271186
  PAW double counting   =      2494.74943316    -2271.20283050
  entropy T*S    EENTRO =        -0.00000000
  eigenvalues    EBANDS =      -236.71430035
  atomic energy  EATOM  =      1435.22174307
  Solvation  Ediel_sol  =         0.00000000
  ---------------------------------------------------
  free energy    TOTEN  =       -39.77560307 eV

  energy without entropy =      -39.77560307  energy(sigma->0) =      -39.77560307


--------------------------------------------------------------------------------------------------------




--------------------------------------- Iteration      1(   8)  ---------------------------------------


    POTLOK:  cpu time    0.0125: real time    0.0125
    SETDIJ:  cpu time    0.0020: real time    0.0020
     EDDAV:  cpu time    1.2860: real time    1.2864
       DOS:  cpu time    0.0011: real time    0.0011
    CHARGE:  cpu time    0.0418: real time    0.0418
    MIXING:  cpu time    0.0004: real time    0.0004
    --------------------------------------------
      LOOP:  cpu time    1.3438: real time    1.3441

 eigenvalue-minimisations  :  6888
 total energy-change (2. order) : 0.3359133E+00  (-0.1506667E+00)
 number of electron      36.0000000 magnetization 
 augmentation part       -1.7182672 magnetization 

 DIPCOR: dipole corrections for dipol
 direction  3 min pos     1,
 dipolmoment           0.000000      0.000000      0.136280 electrons x Angstroem
 Tr[quadrupol]      -124.517360

 energy correction for charged system         0.000000 eV
 dipol+quadrupol energy correction           -0.004255 eV
 added-field ion interaction          0.000001 eV  (added to PSCEN)


 Broyden mixing:
  rms(total) = 0.26425E+00    rms(broyden)= 0.26425E+00
  rms(prec ) = 0.27015E+00
  weight for this iteration     100.00

 eigenvalues of (default mixing * dielectric matrix)
  average eigenvalue GAMMA=   1.1006
  2.0541  0.6578  0.5900

 Free energy of the ion-electron system (eV)
  ---------------------------------------------------
  alpha Z        PSCENC =        26.23119914
  Ewald energy   TEWEN  =      4206.94280748
  -Hartree energ DENC   =     -5540.94270850
  -exchange      EXHF   =         0.00000000
  -V(xc)+E(xc)   XCENC  =      -151.43897018
  PAW double counting   =      2844.57797672    -2621.58703768
  entropy T*S    EENTRO =        -0.00000000
  eigenvalues    EBANDS =      -238.44469986
  atomic energy  EATOM  =      1435.22174307
  Solvation  Ediel_sol  =         0.00000000
  ---------------------------------------------------
  free energy    TOTEN  =       -39.43968981 eV

  energy without entropy =      -39.43968981  energy(sigma->0) =      -39.43968981


--------------------------------------------------------------------------------------------------------




--------------------------------------- Iteration      1(   9)  ---------------------------------------


    POTLOK:  cpu time    0.0126: real time    0.0126
    SETDIJ:  cpu time    0.0021: real time    0.0021
     EDDAV:  cpu time    1.2670: real time    1.2673
       DOS:  cpu time    0.0011: real time    0.0011
    CHARGE:  cpu time    0.0416: real time    0.0416
    MIXING:  cpu time    0.0004: real time    0.0004
    --------------------------------------------
      LOOP:  cpu time    1.3247: real time    1.3250

 eigenvalue-minimisations  :  6616
 total energy-change (2. order) : 0.1530541E-01  (-0.1030509E-01)
 number of electron      36.0000000 magnetization 
 augmentation part       -1.7114031 magnetization 

 DIPCOR: dipole corrections for dipol
 direction  3 min pos     1,
 dipolmoment           0.000000      0.000000      0.163992 electrons x Angstroem
 Tr[quadrupol]      -124.624142

 energy correction for charged system         0.000000 eV
 dipol+quadrupol energy correction           -0.006162 eV
 added-field ion interaction          0.000001 eV  (added to PSCEN)


 Broyden mixing:
  rms(total) = 0.98352E-01    rms(broyden)= 0.98352E-01
  rms(prec ) = 0.10089E+00
  weight for this iteration     100.00

 eigenvalues of (default mixing * dielectric matrix)
  average eigenvalue GAMMA=   1.1564
  2.0183  1.0002  1.0002  0.6069

 Free energy of the ion-electron system (eV)
  ---------------------------------------------------
  alpha Z        PSCENC =        26.22929280
  Ewald energy   TEWEN  =      4206.94280748
  -Hartree energ DENC   =     -5543.24916729
  -exchange      EXHF   =         0.00000000
  -V(xc)+E(xc)   XCENC  =      -151.33227750
  PAW double counting   =      2969.94370379    -2747.12572544
  entropy T*S    EENTRO =        -0.00000000
  eigenvalues    EBANDS =      -236.05476130
  atomic energy  EATOM  =      1435.22174307
  Solvation  Ediel_sol  =         0.00000000
  ---------------------------------------------------
  free energy    TOTEN  =       -39.42438440 eV

  energy without entropy =      -39.42438440  energy(sigma->0) =      -39.42438440


--------------------------------------------------------------------------------------------------------




--------------------------------------- Iteration      1(  10)  ---------------------------------------


    POTLOK:  cpu time    0.0126: real time    0.0129
    SETDIJ:  cpu time    0.0020: real time    0.0020
     EDDAV:  cpu time    1.3495: real time    1.3498
       DOS:  cpu time    0.0011: real time    0.0011
    CHARGE:  cpu time    0.0417: real time    0.0417
    MIXING:  cpu time    0.0004: real time    0.0004
    --------------------------------------------
      LOOP:  cpu time    1.4074: real time    1.4079

 eigenvalue-minimisations  :  7424
 total energy-change (2. order) : 0.2709925E-02  (-0.2183074E-02)
 number of electron      36.0000000 magnetization 
 augmentation part       -1.7311774 magnetization 

 DIPCOR: dipole corrections for dipol
 direction  3 min pos     1,
 dipolmoment           0.000000      0.000000      0.167276 electrons x Angstroem
 Tr[quadrupol]      -124.702946

 energy correction for charged system         0.000000 eV
 dipol+quadrupol energy correction           -0.006411 eV
 added-field ion interaction          0.000001 eV  (added to PSCEN)


 Broyden mixing:
  rms(total) = 0.83250E-01    rms(broyden)= 0.83250E-01
  rms(prec ) = 0.84303E-01
  weight for this iteration     100.00

 eigenvalues of (default mixing * dielectric matrix)
  average eigenvalue GAMMA=   1.3288
  2.1785  2.1785  1.0439  0.6215  0.6215

 Free energy of the ion-electron system (eV)
  ---------------------------------------------------
  alpha Z        PSCENC =        26.22904355
  Ewald energy   TEWEN  =      4206.94280748
  -Hartree energ DENC   =     -5545.11731996
  -exchange      EXHF   =         0.00000000
  -V(xc)+E(xc)   XCENC  =      -151.28967336
  PAW double counting   =      2993.08176683    -2770.32389928
  entropy T*S    EENTRO =        -0.00000000
  eigenvalues    EBANDS =      -234.16614280
  atomic energy  EATOM  =      1435.22174307
  Solvation  Ediel_sol  =         0.00000000
  ---------------------------------------------------
  free energy    TOTEN  =       -39.42167447 eV

  energy without entropy =      -39.42167447  energy(sigma->0) =      -39.42167447


--------------------------------------------------------------------------------------------------------




--------------------------------------- Iteration      1(  11)  ---------------------------------------


    POTLOK:  cpu time    0.0125: real time    0.0125
    SETDIJ:  cpu time    0.0019: real time    0.0019
     EDDAV:  cpu time    1.3679: real time    1.3683
       DOS:  cpu time    0.0012: real time    0.0012
    CHARGE:  cpu time    0.0433: real time    0.0433
    MIXING:  cpu time    0.0004: real time    0.0004
    --------------------------------------------
      LOOP:  cpu time    1.4273: real time    1.4277

 eigenvalue-minimisations  :  7384
 total energy-change (2. order) : 0.1315672E-02  (-0.3743827E-03)
 number of electron      36.0000000 magnetization 
 augmentation part       -1.7246963 magnetization 

 DIPCOR: dipole corrections for dipol
 direction  3 min pos     1,
 dipolmoment           0.000000      0.000000      0.159326 electrons x Angstroem
 Tr[quadrupol]      -124.773379

 energy correction for charged system         0.000000 eV
 dipol+quadrupol energy correction           -0.005816 eV
 added-field ion interaction          0.000001 eV  (added to PSCEN)


 Broyden mixing:
  rms(total) = 0.47686E-01    rms(broyden)= 0.47686E-01
  rms(prec ) = 0.49260E-01
  weight for this iteration     100.00

 eigenvalues of (default mixing * dielectric matrix)
  average eigenvalue GAMMA=   1.3135
  2.3580  2.3580  1.0472  0.6139  0.7520  0.7520

 Free energy of the ion-electron system (eV)
  ---------------------------------------------------
  alpha Z        PSCENC =        26.22963839
  Ewald energy   TEWEN  =      4206.94280748
  -Hartree energ DENC   =     -5546.61470088
  -exchange      EXHF   =         0.00000000
  -V(xc)+E(xc)   XCENC  =      -151.24917360
  PAW double counting   =      3011.09767694    -2788.38441191
  entropy T*S    EENTRO =        -0.00000000
  eigenvalues    EBANDS =      -232.66393828
  atomic energy  EATOM  =      1435.22174307
  Solvation  Ediel_sol  =         0.00000000
  ---------------------------------------------------
  free energy    TOTEN  =       -39.42035880 eV

  energy without entropy =      -39.42035880  energy(sigma->0) =      -39.42035880


--------------------------------------------------------------------------------------------------------




--------------------------------------- Iteration      1(  12)  ---------------------------------------


    POTLOK:  cpu time    0.0125: real time    0.0125
    SETDIJ:  cpu time    0.0020: real time    0.0020
     EDDAV:  cpu time    1.3159: real time    1.3163
       DOS:  cpu time    0.0011: real time    0.0011
    CHARGE:  cpu time    0.0421: real time    0.0421
    MIXING:  cpu time    0.0004: real time    0.0004
    --------------------------------------------
      LOOP:  cpu time    1.3741: real time    1.3745

 eigenvalue-minimisations  :  7128
 total energy-change (2. order) : 0.8540894E-03  (-0.3540954E-03)
 number of electron      36.0000000 magnetization 
 augmentation part       -1.7288475 magnetization 

 DIPCOR: dipole corrections for dipol
 direction  3 min pos     1,
 dipolmoment           0.000000      0.000000      0.164443 electrons x Angstroem
 Tr[quadrupol]      -124.837269

 energy correction for charged system         0.000000 eV
 dipol+quadrupol energy correction           -0.006196 eV
 added-field ion interaction          0.000001 eV  (added to PSCEN)


 Broyden mixing:
  rms(total) = 0.15250E-01    rms(broyden)= 0.15250E-01
  rms(prec ) = 0.16942E-01
  weight for this iteration     100.00

 eigenvalues of (default mixing * dielectric matrix)
  average eigenvalue GAMMA=   1.2751
  2.2800  2.2800  1.3131  0.9715  0.6434  0.6434  0.7947

 Free energy of the ion-electron system (eV)
  ---------------------------------------------------
  alpha Z        PSCENC =        26.22925889
  Ewald energy   TEWEN  =      4206.94280748
  -Hartree energ DENC   =     -5548.05203378
  -exchange      EXHF   =         0.00000000
  -V(xc)+E(xc)   XCENC  =      -151.22792176
  PAW double counting   =      3009.91842522    -2787.21639637
  entropy T*S    EENTRO =        -0.00000000
  eigenvalues    EBANDS =      -231.23538746
  atomic energy  EATOM  =      1435.22174307
  Solvation  Ediel_sol  =         0.00000000
  ---------------------------------------------------
  free energy    TOTEN  =       -39.41950471 eV

  energy without entropy =      -39.41950471  energy(sigma->0) =      -39.41950471


--------------------------------------------------------------------------------------------------------




--------------------------------------- Iteration      1(  13)  ---------------------------------------


    POTLOK:  cpu time    0.0121: real time    0.0121
    SETDIJ:  cpu time    0.0020: real time    0.0020
     EDDAV:  cpu time    1.2919: real time    1.2922
       DOS:  cpu time    0.0010: real time    0.0010
    CHARGE:  cpu time    0.0422: real time    0.0422
    MIXING:  cpu time    0.0005: real time    0.0005
    --------------------------------------------
      LOOP:  cpu time    1.3509: real time    1.3512

 eigenvalue-minimisations  :  6960
 total energy-change (2. order) : 0.1550452E-03  (-0.1828029E-03)
 number of electron      36.0000000 magnetization 
 augmentation part       -1.7201197 magnetization 

 DIPCOR: dipole corrections for dipol
 direction  3 min pos     1,
 dipolmoment           0.000000      0.000000      0.163301 electrons x Angstroem
 Tr[quadrupol]      -124.869908

 energy correction for charged system         0.000000 eV
 dipol+quadrupol energy correction           -0.006110 eV
 added-field ion interaction          0.000001 eV  (added to PSCEN)


 Broyden mixing:
  rms(total) = 0.10569E-01    rms(broyden)= 0.10569E-01
  rms(prec ) = 0.12124E-01
  weight for this iteration     100.00

 eigenvalues of (default mixing * dielectric matrix)
  average eigenvalue GAMMA=   1.2205
  2.3433  2.3433  1.5588  1.1061  0.7092  0.6678  0.6678  0.3678

 Free energy of the ion-electron system (eV)
  ---------------------------------------------------
  alpha Z        PSCENC =        26.22934463
  Ewald energy   TEWEN  =      4206.94280748
  -Hartree energ DENC   =     -5548.70436576
  -exchange      EXHF   =         0.00000000
  -V(xc)+E(xc)   XCENC  =      -151.21198970
  PAW double counting   =      3010.83932820    -2788.13950383
  entropy T*S    EENTRO =        -0.00000000
  eigenvalues    EBANDS =      -230.59671375
  atomic energy  EATOM  =      1435.22174307
  Solvation  Ediel_sol  =         0.00000000
  ---------------------------------------------------
  free energy    TOTEN  =       -39.41934967 eV

  energy without entropy =      -39.41934967  energy(sigma->0) =      -39.41934967


--------------------------------------------------------------------------------------------------------




--------------------------------------- Iteration      1(  14)  ---------------------------------------


    POTLOK:  cpu time    0.0133: real time    0.0133
    SETDIJ:  cpu time    0.0020: real time    0.0020
     EDDAV:  cpu time    1.3410: real time    1.3413
       DOS:  cpu time    0.0011: real time    0.0011
    CHARGE:  cpu time    0.0451: real time    0.0451
[...]
     12      -4.4247      2.00000
     13      -3.4840      2.00000
     14      -3.4640      2.00000
     15      -2.6366      2.00000
     16      -2.3331      2.00000
     17      -2.0781      2.00000
     18      -1.9215      2.00000
     19       0.1011      0.00000
     20       0.1429      0.00000
     21       0.2164      0.00000
     22       0.3340      0.00000
     23       1.7102      0.00000
     24       1.7234      0.00000

 k-point    96 :       0.4737    0.4545    0.0000
  band No.  band energies     occupation 
      1     -13.7076      2.00000
      2     -13.6930      2.00000
      3     -12.2662      2.00000
      4     -12.2232      2.00000
      5      -7.4579      2.00000
      6      -7.4207      2.00000
      7      -6.2657      2.00000
      8      -6.2511      2.00000
      9      -5.2311      2.00000
     10      -5.2309      2.00000
     11      -4.4736      2.00000
     12      -4.4544      2.00000
     13      -3.4878      2.00000
     14      -3.4831      2.00000
     15      -2.3904      2.00000
     16      -2.2495      2.00000
     17      -2.0400      2.00000
     18      -1.9492      2.00000
     19       0.1314      0.00000
     20       0.1521      0.00000
     21       0.2733      0.00000
     22       0.3295      0.00000
     23       1.6975      0.00000
     24       1.7021      0.00000

 k-point    97 :      -0.4737    0.4545    0.0000
  band No.  band energies     occupation 
      1     -13.7076      2.00000
      2     -13.6930      2.00000
      3     -12.2662      2.00000
      4     -12.2232      2.00000
      5      -7.4579      2.00000
      6      -7.4207      2.00000
      7      -6.2657      2.00000
      8      -6.2511      2.00000
      9      -5.2311      2.00000
     10      -5.2309      2.00000
     11      -4.4736      2.00000
     12      -4.4544      2.00000
     13      -3.4878      2.00000
     14      -3.4831      2.00000
     15      -2.3904      2.00000
     16      -2.2495      2.00000
     17      -2.0400      2.00000
     18      -1.9492      2.00000
     19       0.1314      0.00000
     20       0.1521      0.00000
     21       0.2733      0.00000
     22       0.3295      0.00000
     23       1.6975      0.00000
     24       1.7021      0.00000

 k-point    98 :      -0.4211    0.4545    0.0000
  band No.  band energies     occupation 
      1     -13.7559      2.00000
      2     -13.7122      2.00000
      3     -12.4079      2.00000
      4     -12.2883      2.00000
      5      -7.3047      2.00000
      6      -7.2043      2.00000
      7      -6.2179      2.00000
      8      -6.1723      2.00000
      9      -5.2266      2.00000
     10      -5.2228      2.00000
     11      -4.4876      2.00000
     12      -4.4247      2.00000
     13      -3.4840      2.00000
     14      -3.4640      2.00000
     15      -2.6366      2.00000
     16      -2.3331      2.00000
     17      -2.0781      2.00000
     18      -1.9215      2.00000
     19       0.1011      0.00000
     20       0.1429      0.00000
     21       0.2164      0.00000
     22       0.3340      0.00000
     23       1.7102      0.00000
     24       1.7234      0.00000

 k-point    99 :      -0.3684    0.4545    0.0000
  band No.  band energies     occupation 
      1     -13.8345      2.00000
      2     -13.7622      2.00000
      3     -12.6120      2.00000
      4     -12.4365      2.00000
      5      -7.0044      2.00000
      6      -6.8703      2.00000
      7      -6.1038      2.00000
      8      -6.0205      2.00000
      9      -5.2274      2.00000
     10      -5.2101      2.00000
     11      -4.5178      2.00000
     12      -4.4046      2.00000
     13      -3.4461      2.00000
     14      -3.4049      2.00000
     15      -2.9218      2.00000
     16      -2.5569      2.00000
     17      -2.0810      2.00000
     18      -1.9521      2.00000
     19       0.0260      0.00000
     20       0.0277      0.00000
     21       0.2613      0.00000
     22       0.3254      0.00000
     23       1.6019      0.00000
     24       1.6437      0.00000

 k-point   100 :      -0.3158    0.4545    0.0000
  band No.  band energies     occupation 
      1     -13.9373      2.00000
      2     -13.8369      2.00000
      3     -12.8373      2.00000
      4     -12.6274      2.00000
      5      -6.6466      2.00000
      6      -6.5184      2.00000
      7      -5.9121      2.00000
      8      -5.7826      2.00000
      9      -5.2331      2.00000
     10      -5.2064      2.00000
     11      -4.5647      2.00000
     12      -4.4121      2.00000
     13      -3.3488      2.00000
     14      -3.3188      2.00000
     15      -3.1635      2.00000
     16      -2.7904      2.00000
     17      -2.0813      2.00000
     18      -1.9986      2.00000
     19      -0.1029      0.00000
     20      -0.1021      0.00000
     21       0.3270      0.00000
     22       0.3400      0.00000
     23       1.3879      0.00000
     24       1.4590      0.00000

 k-point   101 :      -0.2632    0.4545    0.0000
  band No.  band energies     occupation 
      1     -14.0553      2.00000
      2     -13.9279      2.00000
      3     -13.0519      2.00000
      4     -12.8244      2.00000
      5      -6.3448      2.00000
      6      -6.2503      2.00000
      7      -5.6454      2.00000
      8      -5.5371      2.00000
      9      -5.2188      2.00000
     10      -5.1532      2.00000
     11      -4.5886      2.00000
     12      -4.4299      2.00000
     13      -3.4137      2.00000
     14      -3.2134      2.00000
     15      -3.1271      2.00000
     16      -2.9816      2.00000
     17      -2.0450      2.00000
     18      -2.0184      2.00000
     19      -0.2329      0.00000
     20      -0.2077      0.00000
     21       0.3619      0.00000
     22       0.3886      0.00000
     23       1.1806      0.00000
     24       1.2244      0.00000

 k-point   102 :      -0.2105    0.4545    0.0000
  band No.  band energies     occupation 
      1     -14.1771      2.00000
      2     -14.0248      2.00000
      3     -13.2368      2.00000
      4     -13.0028      2.00000
      5      -6.1639      2.00000
      6      -6.1130      2.00000
      7      -5.4640      2.00000
      8      -5.4568      2.00000
      9      -5.1461      2.00000
     10      -4.8431      2.00000
     11      -4.5628      2.00000
     12      -4.4267      2.00000
     13      -3.4516      2.00000
     14      -3.1486      2.00000
     15      -3.0440      2.00000
     16      -3.0382      2.00000
     17      -1.9932      2.00000
     18      -1.9642      2.00000
     19      -0.3110      0.00000
     20      -0.2486      0.00000
     21       0.3785      0.00000
     22       0.4449      0.00000
     23       1.0173      0.00000
     24       1.0312      0.00000

 k-point   103 :      -0.1579    0.4545    0.0000
  band No.  band energies     occupation 
      1     -14.2896      2.00000
      2     -14.1161      2.00000
      3     -13.3828      2.00000
      4     -13.1484      2.00000
      5      -6.1094      2.00000
      6      -6.1033      2.00000
      7      -5.4497      2.00000
      8      -5.4084      2.00000
      9      -4.9410      2.00000
     10      -4.5329      2.00000
     11      -4.5079      2.00000
     12      -4.3796      2.00000
     13      -3.3052      2.00000
     14      -3.1742      2.00000
     15      -3.0388      2.00000
     16      -2.9483      2.00000
     17      -1.9596      2.00000
     18      -1.8850      2.00000
     19      -0.2998      0.00000
     20      -0.1999      0.00000
     21       0.3983      0.00000
     22       0.5127      0.00000
     23       0.9001      0.00000
     24       0.9842      0.00000

 k-point   104 :      -0.1053    0.4545    0.0000
  band No.  band energies     occupation 
      1     -14.3803      2.00000
      2     -14.1907      2.00000
      3     -13.4870      2.00000
      4     -13.2544      2.00000
      5      -6.1742      2.00000
      6      -6.1256      2.00000
      7      -5.4542      2.00000
      8      -5.3385      2.00000
      9      -4.8162      2.00000
     10      -4.3973      2.00000
     11      -4.3889      2.00000
     12      -4.2527      2.00000
     13      -3.1623      2.00000
     14      -3.1494      2.00000
     15      -2.9953      2.00000
     16      -2.8471      2.00000
     17      -1.9855      2.00000
     18      -1.8703      2.00000
     19      -0.2163      0.00000
     20      -0.0926      0.00000
     21       0.4450      0.00000
     22       0.6088      0.00000
     23       0.9151      0.00000
     24       1.0556      0.00000

 k-point   105 :      -0.0526    0.4545    0.0000
  band No.  band energies     occupation 
      1     -14.4389      2.00000
      2     -14.2395      2.00000
      3     -13.5492      2.00000
      4     -13.3185      2.00000
      5      -6.2359      2.00000
      6      -6.1679      2.00000
      7      -5.4507      2.00000
      8      -5.2907      2.00000
      9      -4.7891      2.00000
     10      -4.3412      2.00000
     11      -4.2384      2.00000
     12      -4.1311      2.00000
     13      -3.2476      2.00000
     14      -3.1658      2.00000
     15      -2.7310      2.00000
     16      -2.7272      2.00000
     17      -2.0883      2.00000
     18      -1.9181      2.00000
     19      -0.1367      0.00000
     20      -0.0090      0.00000
     21       0.5200      0.00000
     22       0.7158      0.00000
     23       1.0186      0.00000
     24       1.1843      0.00000


--------------------------------------------------------------------------------------------------------


 soft charge-density along one line, spin component           1
         0         1         2         3         4         5         6         7         8         9
 total charge-density along one line
 
 pseudopotential strength for first ion, spin component:           1
 -9.492   0.000   0.000  -0.002  -0.000  -9.683   0.000   0.000
  0.000  -9.500  -0.000  -0.000  -0.002   0.000  -9.691  -0.000
  0.000  -0.000  -9.490   0.000   0.001   0.000  -0.000  -9.680
 -0.002  -0.000   0.000  -9.501   0.000  -0.002  -0.000   0.000
 -0.000  -0.002   0.001   0.000  -9.492  -0.000  -0.002   0.001
 -9.683   0.000   0.000  -0.002  -0.000  -9.863   0.000   0.000
  0.000  -9.691  -0.000  -0.000  -0.002   0.000  -9.871  -0.000
  0.000  -0.000  -9.680   0.000   0.001   0.000  -0.000  -9.861
 -0.002  -0.000   0.000  -9.692   0.000  -0.002  -0.000   0.000
 -0.000  -0.002   0.001   0.000  -9.683  -0.000  -0.002   0.001
  0.000  -0.000   0.001  -0.000   0.001   0.000  -0.000   0.001
  0.000  -0.000   0.002  -0.000   0.001   0.000  -0.000   0.002
  0.000  -0.029   0.000   0.000   0.007   0.000  -0.029   0.000
  0.000  -0.000  -0.030   0.000  -0.000   0.000  -0.000  -0.030
  0.007   0.000  -0.000  -0.029   0.000   0.007   0.000  -0.000
  0.000  -0.035   0.000   0.000   0.008   0.000  -0.036   0.000
  0.000  -0.000  -0.038   0.000  -0.000   0.000  -0.000  -0.038
  0.008   0.000  -0.000  -0.035   0.000   0.008   0.000  -0.000
 total augmentation occupancy for first ion, spin component:           1
  2.106  -0.000  -0.000   0.435  -0.000  -2.494   0.000   0.000  -0.617   0.000  -0.000   0.000   0.000  -0.000  -0.320  -0.000
 -0.000   3.217   0.001   0.000   0.439   0.000  -4.183  -0.001  -0.000  -0.625   0.003  -0.000  -0.150   0.006  -0.000   0.029
 -0.000   0.001   1.555   0.000   0.001   0.000  -0.001  -1.760  -0.000  -0.001  -0.111   0.018   0.000   0.165  -0.000  -0.000
  0.435   0.000   0.000   3.213   0.000  -0.617  -0.000  -0.000  -4.182  -0.000  -0.000   0.000  -0.000   0.000  -0.149   0.000
 -0.000   0.439   0.001   0.000   2.120   0.000  -0.625  -0.001  -0.000  -2.503   0.001  -0.000  -0.326   0.000  -0.000   0.048
 -2.494   0.000   0.000  -0.617   0.000   3.794  -0.000  -0.000   0.767  -0.000   0.000  -0.000  -0.000   0.000   0.388   0.000
  0.000  -4.183  -0.001  -0.000  -0.625  -0.000   6.010   0.001   0.000   0.778  -0.004   0.000   0.169  -0.007   0.000  -0.040
  0.000  -0.001  -1.760  -0.000  -0.001  -0.000   0.001   2.901   0.000   0.004   0.236  -0.020  -0.001  -0.137  -0.000   0.000
 -0.617  -0.000  -0.000  -4.182  -0.000   0.767   0.000   0.000   6.009   0.000   0.000  -0.000   0.000  -0.000   0.169  -0.000
  0.000  -0.625  -0.001  -0.000  -2.503  -0.000   0.778   0.004   0.000   3.801  -0.003   0.001   0.394   0.000   0.000  -0.054
 -0.000   0.003  -0.111  -0.000   0.001   0.000  -0.004   0.236   0.000  -0.003   1.557  -0.100  -0.002   0.046   0.000   0.000
  0.000  -0.000   0.018   0.000  -0.000  -0.000   0.000  -0.020  -0.000   0.001  -0.100   0.008   0.000  -0.001   0.000  -0.000
  0.000  -0.150   0.000  -0.000  -0.326  -0.000   0.169  -0.001   0.000   0.394  -0.002   0.000   0.291  -0.000   0.000  -0.036
 -0.000   0.006   0.165   0.000   0.000   0.000  -0.007  -0.137  -0.000   0.000   0.046  -0.001  -0.000   0.357   0.000   0.000
 -0.320  -0.000  -0.000  -0.149  -0.000   0.388   0.000  -0.000   0.169   0.000   0.000   0.000   0.000   0.000   0.290  -0.000
 -0.000   0.029  -0.000   0.000   0.048   0.000  -0.040   0.000  -0.000  -0.054   0.000  -0.000  -0.036   0.000  -0.000   0.005
  0.000  -0.001  -0.018  -0.000  -0.000  -0.000   0.001   0.006   0.000  -0.000  -0.010   0.000   0.000  -0.044  -0.000  -0.000
  0.048   0.000   0.000   0.029   0.000  -0.053  -0.000  -0.000  -0.040  -0.000   0.000   0.000  -0.000  -0.000  -0.036   0.000


------------------------ aborting loop because EDIFF is reached ----------------------------------------


    CHARGE:  cpu time    0.0404: real time    0.0404
    FORLOC:  cpu time    0.0003: real time    0.0003
    FORNL :  cpu time    0.0611: real time    0.0611
    STRESS:  cpu time    0.3208: real time    0.3208
    FORCOR:  cpu time    0.0139: real time    0.0139
    FORHAR:  cpu time    0.0024: real time    0.0024
    MIXING:  cpu time    0.0002: real time    0.0002
    OFIELD:  cpu time    0.0000: real time    0.0000

  FORCE on cell =-STRESS in cart. coord.  units (eV):
  Direction    XX          YY          ZZ          XY          YZ          ZX
  --------------------------------------------------------------------------------------
  Alpha Z    26.23545    26.23545    26.23545
  Ewald    5275.71273  5276.95822 -6352.76715     0.00000    -0.26915     0.00000
  Hartree  5484.01616  5484.47258 -5423.64956     0.00000    -0.10548     0.00000
  E(xc)    -145.47048  -145.50113  -147.28103     0.00000    -0.00202    -0.00000
  Local  -11316.12947-11317.81492 11207.90845    -0.00000     0.38596    -0.00000
  n-local   324.07601   323.97941   339.17268    -0.00000    -0.02196     0.00000
  augment   -67.64695   -67.60464   -71.26394     0.00000     0.00732    -0.00000
  Kinetic   419.37677   419.95256   421.63670    -0.00000     0.00587     0.00000
  Fock        0.00000     0.00000     0.00000     0.00000     0.00000     0.00000
  -------------------------------------------------------------------------------------
  Total       0.17023     0.67754    -0.00840    -0.00000     0.00054     0.00000
  in kB       0.69067     2.74898    -0.03410    -0.00000     0.00217     0.00000
  external pressure =        1.14 kB  Pullay stress =        0.00 kB


 VOLUME and BASIS-vectors are now :
 -----------------------------------------------------------------------------
  energy-cutoff  :      600.00
  volume of cell :      394.89
      direct lattice vectors                 reciprocal lattice vectors
     3.363599539  0.000000000  0.000000000     0.297300552  0.000000000  0.000000000
     0.000000000  5.796796198  0.000000000     0.000000000  0.172509084  0.000000000
     0.000000000  0.000000000 20.252588272     0.000000000  0.000000000  0.049376405

  length of vectors
     3.363599539  5.796796198 20.252588272     0.297300552  0.172509084  0.049376405


 FORCES acting on ions
    electron-ion (+dipol)            ewald-force                    non-local-force                 convergence-correction
 -----------------------------------------------------------------------------------------------
   -.456E-07 -.428E+00 -.372E+01   0.519E-07 0.426E+00 0.608E+01   -.209E-07 0.147E-02 -.236E+01   -.739E-08 0.185E-03 0.407E-03
   0.236E-06 -.427E+00 -.372E+01   -.204E-06 0.426E+00 0.607E+01   0.555E-08 0.149E-02 -.236E+01   -.217E-07 -.103E-04 0.325E-03
   -.454E-06 0.290E+00 -.469E+03   0.379E-06 -.280E+00 0.474E+03   0.143E-06 -.762E-02 -.552E+01   0.269E-07 -.217E-02 -.811E-04
   -.696E-07 0.285E+00 -.469E+03   0.305E-07 -.279E+00 0.474E+03   0.416E-07 -.792E-02 -.552E+01   0.137E-07 0.251E-02 0.128E-02
   0.306E-06 0.149E+00 0.476E+03   -.285E-06 -.146E+00 -.480E+03   -.123E-06 -.159E-02 0.456E+01   -.647E-09 -.163E-02 0.599E-03
   -.290E-07 0.146E+00 0.476E+03   0.274E-07 -.146E+00 -.480E+03   -.225E-07 -.171E-02 0.456E+01   0.132E-08 0.163E-02 -.516E-03
 -----------------------------------------------------------------------------------------------
   -.560E-07 0.155E-01 0.663E+01   0.505E-14 0.128E-14 0.000E+00   0.243E-07 -.159E-01 -.663E+01   0.121E-07 0.513E-03 0.201E-02
 
 
 POSITION                                       TOTAL-FORCE (eV/Angst)
 -----------------------------------------------------------------------------------
      1.68180      0.96749     10.26915        -0.000000      0.000043     -0.000119
     -0.00000      3.86589     10.26915         0.000000     -0.000014      0.000232
      1.68180      4.82989     11.74497         0.000000      0.000137      0.000017
     -0.00000      1.93149     11.74497         0.000000      0.000150      0.000006
      1.68180      4.83007      8.36476        -0.000000     -0.000039     -0.000133
     -0.00000      1.93168      8.36476        -0.000000     -0.000277     -0.000002
 -----------------------------------------------------------------------------------
    total drift:                               -0.000000      0.000124     -0.000235


--------------------------------------------------------------------------------------------------------



  FREE ENERGIE OF THE ION-ELECTRON SYSTEM (eV)
  ---------------------------------------------------
  free  energy   TOTEN  =       -39.42063979 eV

  energy  without entropy=      -39.42063979  energy(sigma->0) =      -39.42063979
 
 d Force = 0.1655713E-06[ 0.392E-08, 0.327E-06]  d Energy = 0.1883977E-06-0.228E-07
 d Force =-0.3074508E-01[-0.307E-01,-0.307E-01]  d Ewald  =-0.3074508E-01 0.106E-09


--------------------------------------------------------------------------------------------------------


    POTLOK:  cpu time    0.0139: real time    0.0139


--------------------------------------------------------------------------------------------------------




--------------------------------------------------------------------------------------------------------


  
 reached required accuracy - stopping structural energy minimisation
     LOOP+:  cpu time    4.1626: real time    4.2123
    4ORBIT:  cpu time    0.0000: real time    0.0000

 total amount of memory used by VASP MPI-rank0    62837. kBytes
=======================================================================

   base      :      30000. kBytes
   nonl-proj :      25819. kBytes
   fftplans  :       1397. kBytes
   grid      :       2623. kBytes
   one-center:         15. kBytes
   wavefun   :       2983. kBytes
 
  
  
 General timing and accounting informations for this job:
 ========================================================
  
                  Total CPU time used (sec):       92.286
                            User time (sec):       89.117
                          System time (sec):        3.169
                         Elapsed time (sec):       92.752
  
                   Maximum memory used (kb):      175028.
                   Average memory used (kb):           0.
  
                          Minor page faults:        25104
                          Major page faults:         1033
                 Voluntary context switches:         1957
