nqpoint: 153    
npath: 3      
segment_nqpoint:
- 51
- 51
- 51
labels:
- [ '$\Gamma$', 'K' ]
- [ 'K', 'M' ]
- [ 'M', '$\Gamma$' ]
reciprocal_lattice:
- [   0.28172794,   0.16265570,   0.00000000 ] # a*
- [   0.00000000,   0.32531141,   0.00000000 ] # b*
- [   0.00000000,   0.00000000,   0.05000000 ] # c*
natom: 3      
lattice:
- [     3.549523652261799,     0.000000000000000,     0.000000000000000 ] # a
- [    -1.774761826081029,     3.073977654199909,     0.000000000000000 ] # b
- [     0.000000000000000,     0.000000000000000,    20.000000000000000 ] # c
points:
- symbol: Mo # 1
  coordinates: [  0.333333343000000,  0.666666687000003,  0.499999993000003 ]
  mass: 95.960000
- symbol: Te # 2
  coordinates: [  0.666666687000003,  0.333333343000000,  0.409723437189734 ]
  mass: 127.600000
- symbol: Te # 3
  coordinates: [  0.666666687000003,  0.333333343000000,  0.590276562810266 ]
  mass: 127.600000

phonon:
- q-position: [    0.0000000,    0.0000000,    0.0000000 ]
  distance:    0.0000000
  band:
  - # 1
    frequency:    0.0493274804
  - # 2
    frequency:    0.0609916370
  - # 3
    frequency:    0.0609916371
  - # 4
    frequency:  114.5257381275
  - # 5
    frequency:  114.5257381275
  - # 6
    frequency:  170.0339630883
  - # 7
    frequency:  230.2972111623
  - # 8
    frequency:  230.2972111623
  - # 9
    frequency:  285.1837103971

- q-position: [    0.0066667,    0.0066667,    0.0000000 ]
  distance:    0.0037564
  band:
  - # 1
    frequency:    0.7121752006
  - # 2
    frequency:    3.0032764291
  - # 3
    frequency:    4.9123299441
  - # 4
    frequency:  114.5470675937
  - # 5
    frequency:  114.6283756814
  - # 6
    frequency:  169.9903375254
  - # 7
    frequency:  230.3074847466
  - # 8
    frequency:  230.3360228749
  - # 9
    frequency:  285.1383873563

- q-position: [    0.0133333,    0.0133333,    0.0000000 ]
  distance:    0.0075127
  band:
  - # 1
    frequency:    1.5168823725
  - # 2
    frequency:    6.0056124574
  - # 3
    frequency:    9.8119374428
  - # 4
    frequency:  114.6109927112
  - # 5
    frequency:  114.9338579336
  - # 6
    frequency:  169.8600282030
  - # 7
    frequency:  230.3380808029
  - # 8
    frequency:  230.4514212657
  - # 9
    frequency:  285.0026506927

- q-position: [    0.0200000,    0.0200000,    0.0000000 ]
  distance:    0.0112691
  band:
  - # 1
    frequency:    2.4899479716
  - # 2
    frequency:    9.0080670043
  - # 3
    frequency:   14.6873580197
  - # 4
    frequency:  114.7173249247
  - # 5
    frequency:  115.4350594209
  - # 6
    frequency:  169.6447099210
  - # 7
    frequency:  230.3883210848
  - # 8
    frequency:  230.6403517935
  - # 9
    frequency:  284.7771962040

- q-position: [    0.0266667,    0.0266667,    0.0000000 ]
  distance:    0.0150255
  band:
  - # 1
    frequency:    3.6733852730
  - # 2
    frequency:   12.0102807577
  - # 3
    frequency:   19.5263297441
  - # 4
    frequency:  114.8657542044
  - # 5
    frequency:  116.1206305528
  - # 6
    frequency:  169.3470869356
  - # 7
    frequency:  230.4570613592
  - # 8
    frequency:  230.8979046128
  - # 9
    frequency:  284.4631783178

- q-position: [    0.0333333,    0.0333333,    0.0000000 ]
  distance:    0.0187819
  band:
  - # 1
    frequency:    5.0844469408
  - # 2
    frequency:   15.0118324820
  - # 3
    frequency:   24.3166489881
  - # 4
    frequency:  115.0558551792
  - # 5
    frequency:  116.9757019647
  - # 6
    frequency:  168.9707752287
  - # 7
    frequency:  230.5426708432
  - # 8
    frequency:  231.2175708621
  - # 9
    frequency:  284.0622023386

- q-position: [    0.0400000,    0.0400000,    0.0000000 ]
  distance:    0.0225382
  band:
  - # 1
    frequency:    6.7237050048
  - # 2
    frequency:   18.0120849620
  - # 3
    frequency:   29.0460942768
  - # 4
    frequency:  115.2870953133
  - # 5
    frequency:  117.9827242189
  - # 6
    frequency:  168.5201607187
  - # 7
    frequency:  230.6430039383
  - # 8
    frequency:  231.5915735579
  - # 9
    frequency:  283.5763137851

- q-position: [    0.0466667,    0.0466667,    0.0000000 ]
  distance:    0.0262946
  band:
  - # 1
    frequency:    8.5817287362
  - # 2
    frequency:   21.0101281363
  - # 3
    frequency:   33.7023982891
  - # 4
    frequency:  115.5588447425
  - # 5
    frequency:  119.1223415417
  - # 6
    frequency:  168.0002509214
  - # 7
    frequency:  230.7553652278
  - # 8
    frequency:  232.0112505466
  - # 9
    frequency:  283.0079849990

- q-position: [    0.0533333,    0.0533333,    0.0000000 ]
  distance:    0.0300510
  band:
  - # 1
    frequency:   10.6434608019
  - # 2
    frequency:   24.0047433342
  - # 3
    frequency:   38.2732196506
  - # 4
    frequency:  115.8703873154
  - # 5
    frequency:  120.3742143838
  - # 6
    frequency:  167.4165365149
  - # 7
    frequency:  230.8764696960
  - # 8
    frequency:  232.4674662237
  - # 9
    frequency:  282.3600992438

- q-position: [    0.0600000,    0.0600000,    0.0000000 ]
  distance:    0.0338074
  band:
  - # 1
    frequency:   12.8909111128
  - # 2
    frequency:   26.9943808305
  - # 3
    frequency:   42.7461085477
  - # 4
    frequency:  116.2209323310
  - # 5
    frequency:  121.7177325291
  - # 6
    frequency:  166.7748760633
  - # 7
    frequency:  231.0024017377
  - # 8
    frequency:  232.9510296925
  - # 9
    frequency:  281.6359325327

- q-position: [    0.0666667,    0.0666667,    0.0000000 ]
  distance:    0.0375637
  band:
  - # 1
    frequency:   15.3048065304
  - # 2
    frequency:   29.9771492977
  - # 3
    frequency:   47.1084648614
  - # 4
    frequency:  116.6096264421
  - # 5
    frequency:  123.1325892854
  - # 6
    frequency:  166.0814127925
  - # 7
    frequency:  231.1285789370
  - # 8
    frequency:  233.4530985104
  - # 9
    frequency:  280.8391334416

- q-position: [    0.0733333,    0.0733333,    0.0000000 ]
  distance:    0.0413201
  band:
  - # 1
    frequency:   17.8656071503
  - # 2
    frequency:   32.9508164704
  - # 3
    frequency:   51.3474889551
  - # 4
    frequency:  117.0355651922
  - # 5
    frequency:  124.5992115475
  - # 6
    frequency:  165.3425277265
  - # 7
    frequency:  231.2497298245
  - # 8
    frequency:  233.9655481133
  - # 9
    frequency:  279.9737011569

- q-position: [    0.0800000,    0.0800000,    0.0000000 ]
  distance:    0.0450765
  band:
  - # 1
    frequency:   20.5541281627
  - # 2
    frequency:   35.9128201395
  - # 3
    frequency:   55.4501264005
  - # 4
    frequency:  117.4978036724
  - # 5
    frequency:  126.0990572882
  - # 6
    frequency:  164.5648292754
  - # 7
    frequency:  231.3598985906
  - # 8
    frequency:  234.4812869756
  - # 9
    frequency:  279.0439619950

- q-position: [    0.0866667,    0.0866667,    0.0000000 ]
  distance:    0.0488328
  band:
  - # 1
    frequency:   23.3519076801
  - # 2
    frequency:   38.8602882002
  - # 3
    frequency:   59.4030093724
  - # 4
    frequency:  117.9953658279
  - # 5
    frequency:  127.6148012317
  - # 6
    frequency:  163.7551757609
  - # 7
    frequency:  231.4524931764
  - # 8
    frequency:  234.9944970221
  - # 9
    frequency:  278.0545445968

- q-position: [    0.0933333,    0.0933333,    0.0000000 ]
  distance:    0.0525892
  band:
  - # 1
    frequency:   26.2414072700
  - # 2
    frequency:   41.7900660242
  - # 3
    frequency:   63.1923994561
  - # 4
    frequency:  118.5272519933
  - # 5
    frequency:  129.1304326456
  - # 6
    frequency:  162.9207242488
  - # 7
    frequency:  231.5203946782
  - # 8
    frequency:  235.5007792568
  - # 9
    frequency:  277.0103539600

- q-position: [    0.1000000,    0.1000000,    0.0000000 ]
  distance:    0.0563456
  band:
  - # 1
    frequency:   29.2061017444
  - # 2
    frequency:   44.6987489267
  - # 3
    frequency:   66.8041394249
  - # 4
    frequency:  119.0924442979
  - # 5
    frequency:  130.6312883861
  - # 6
    frequency:  162.0689960981
  - # 7
    frequency:  231.5561433741
  - # 8
    frequency:  235.9971883442
  - # 9
    frequency:  275.9165444165

- q-position: [    0.1066667,    0.1066667,    0.0000000 ]
  distance:    0.0601020
  band:
  - # 1
    frequency:   32.2304965157
  - # 2
    frequency:   47.5827169093
  - # 3
    frequency:   70.2236254016
  - # 4
    frequency:  119.6899096411
  - # 5
    frequency:  132.1040413819
  - # 6
    frequency:  161.2079464184
  - # 7
    frequency:  231.5522079401
  - # 8
    frequency:  236.4821491275
  - # 9
    frequency:  274.7784916009

- q-position: [    0.1133333,    0.1133333,    0.0000000 ]
  distance:    0.0638583
  band:
  - # 1
    frequency:   35.3000989727
  - # 2
    frequency:   50.4381680898
  - # 3
    frequency:   73.4358158840
  - # 4
    frequency:  120.3185999939
  - # 5
    frequency:  133.5366609882
  - # 6
    frequency:  160.3460208110
  - # 7
    frequency:  231.5013292842
  - # 8
    frequency:  236.9552633169
  - # 9
    frequency:  273.6017633959

- q-position: [    0.1200000,    0.1200000,    0.0000000 ]
  distance:    0.0676147
  band:
  - # 1
    frequency:   38.4013622127
  - # 2
    frequency:   53.2611461045
  - # 3
    frequency:   76.4253004126
  - # 4
    frequency:  120.9774498245
  - # 5
    frequency:  134.9183579125
  - # 6
    frequency:  159.4921782840
  - # 7
    frequency:  231.3969118023
  - # 8
    frequency:  237.4170331066
  - # 9
    frequency:  272.3920897750

- q-position: [    0.1266667,    0.1266667,    0.0000000 ]
  distance:    0.0713711
  band:
  - # 1
    frequency:   41.5216137529
  - # 2
    frequency:   56.0475549811
  - # 3
    frequency:   79.1764578571
  - # 4
    frequency:  121.6653704717
  - # 5
    frequency:  136.2395231327
  - # 6
    frequency:  158.6558545304
  - # 7
    frequency:  231.2334188336
  - # 8
    frequency:  237.8685443534
  - # 9
    frequency:  271.1553314178

- q-position: [    0.1333333,    0.1333333,    0.0000000 ]
  distance:    0.0751275
  band:
  - # 1
    frequency:   44.6489778055
  - # 2
    frequency:   58.7931519670
  - # 3
    frequency:   81.6737415732
  - # 4
    frequency:  122.3812412962
  - # 5
    frequency:  137.4916675491
  - # 6
    frequency:  157.8468361193
  - # 7
    frequency:  231.0067224890
  - # 8
    frequency:  238.3111584675
  - # 9
    frequency:  269.8974469376

- q-position: [    0.1400000,    0.1400000,    0.0000000 ]
  distance:    0.0788838
  band:
  - # 1
    frequency:   47.7722968519
  - # 2
    frequency:   61.4935034559
  - # 3
    frequency:   83.9021346791
  - # 4
    frequency:  123.1238974241
  - # 5
    frequency:  138.6673670399
  - # 6
    frequency:  157.0750159248
  - # 7
    frequency:  230.7143644157
  - # 8
    frequency:  238.7462558267
  - # 9
    frequency:  268.6244585545

- q-position: [    0.1466667,    0.1466667,    0.0000000 ]
  distance:    0.0826402
  band:
  - # 1
    frequency:   50.8810562701
  - # 2
    frequency:   64.1438792919
  - # 3
    frequency:   85.8478221977
  - # 4
    frequency:  123.8921138634
  - # 5
    frequency:  139.7602160240
  - # 6
    frequency:  156.3500066989
  - # 7
    frequency:  230.3557012423
  - # 8
    frequency:  239.1750565867
  - # 9
    frequency:  267.3424160740

- q-position: [    0.1533333,    0.1533333,    0.0000000 ]
  distance:    0.0863966
  band:
  - # 1
    frequency:   53.9653144039
  - # 2
    frequency:   66.7390417131
  - # 3
    frequency:   87.4991287096
  - # 4
    frequency:  124.6845857228
  - # 5
    frequency:  140.7647914992
  - # 6
    frequency:  155.6806067643
  - # 7
    frequency:  229.9319296099
  - # 8
    frequency:  239.5985240619
  - # 9
    frequency:  266.0573590939

- q-position: [    0.1600000,    0.1600000,    0.0000000 ]
  distance:    0.0901529
  band:
  - # 1
    frequency:   57.0156395308
  - # 2
    frequency:   69.2728468563
  - # 3
    frequency:   88.8477786126
  - # 4
    frequency:  125.4999042018
  - # 5
    frequency:  141.6766286839
  - # 6
    frequency:  155.0741414148
  - # 7
    frequency:  229.4460035085
  - # 8
    frequency:  240.0173387389
  - # 9
    frequency:  264.7752774716

- q-position: [    0.1666667,    0.1666667,    0.0000000 ]
  distance:    0.0939093
  band:
  - # 1
    frequency:   60.0230545403
  - # 2
    frequency:   71.7374954909
  - # 3
    frequency:   89.8905770905
  - # 4
    frequency:  126.3365279632
  - # 5
    frequency:  142.4922087946
  - # 6
    frequency:  154.5357433370
  - # 7
    frequency:  228.9024669314
  - # 8
    frequency:  240.4319216155
  - # 9
    frequency:  263.5020702315

- q-position: [    0.1733333,    0.1733333,    0.0000000 ]
  distance:    0.0976657
  band:
  - # 1
    frequency:   62.9789896729
  - # 2
    frequency:   74.1220881931
  - # 3
    frequency:   90.6317502769
  - # 4
    frequency:  127.1927494371
  - # 5
    frequency:  143.2089590528
  - # 6
    frequency:  154.0676757557
  - # 7
    frequency:  228.3072275902
  - # 8
    frequency:  240.8424839695
  - # 9
    frequency:  262.2435032794

- q-position: [    0.1800000,    0.1800000,    0.0000000 ]
  distance:    0.1014221
  band:
  - # 1
    frequency:   65.8752433085
  - # 2
    frequency:   76.4097139588
  - # 3
    frequency:   91.0865833725
  - # 4
    frequency:  128.0666555574
  - # 5
    frequency:  143.8252647267
  - # 6
    frequency:  153.6688271404
  - # 7
    frequency:  227.6672951129
  - # 8
    frequency:  241.2490842634
  - # 9
    frequency:  261.0051665034

- q-position: [    0.1866667,    0.1866667,    0.0000000 ]
  distance:    0.1051784
  band:
  - # 1
    frequency:   68.7039504761
  - # 2
    frequency:   78.5712678861
  - # 3
    frequency:   91.2880346392
  - # 4
    frequency:  128.9560823699
  - # 5
    frequency:  144.3404928601
  - # 6
    frequency:  153.3344996899
  - # 7
    frequency:  226.9905027898
  - # 8
    frequency:  241.6516786310
  - # 9
    frequency:  259.7924310564

- q-position: [    0.1933333,    0.1933333,    0.0000000 ]
  distance:    0.1089348
  band:
  - # 1
    frequency:   71.4575584499
  - # 2
    frequency:   80.5517986731
  - # 3
    frequency:   91.3004427791
  - # 4
    frequency:  129.8585628462
  - # 5
    frequency:  144.7550273662
  - # 6
    frequency:  153.0565683908
  - # 7
    frequency:  226.2852276069
  - # 8
    frequency:  242.0501570488
  - # 9
    frequency:  258.6104078186

- q-position: [    0.2000000,    0.2000000,    0.0000000 ]
  distance:    0.1126912
  band:
  - # 1
    frequency:   74.1288084878
  - # 2
    frequency:   82.2416016879
  - # 3
    frequency:   91.2481038269
  - # 4
    frequency:  130.7712669934
  - # 5
    frequency:  145.0703154597
  - # 6
    frequency:  152.8240132960
  - # 7
    frequency:  225.5601199764
  - # 8
    frequency:  242.4443618362
  - # 9
    frequency:  257.4639081904

- q-position: [    0.2066667,    0.2066667,    0.0000000 ]
  distance:    0.1164476
  band:
  - # 1
    frequency:   76.7107224793
  - # 2
    frequency:   83.4355946147
  - # 3
    frequency:   91.3552499045
  - # 4
    frequency:  131.6909327865
  - # 5
    frequency:  145.2889261233
  - # 6
    frequency:  152.6237500365
  - # 7
    frequency:  224.8238522669
  - # 8
    frequency:  242.8340883254
  - # 9
    frequency:  256.3574084435

- q-position: [    0.2133333,    0.2133333,    0.0000000 ]
  distance:    0.1202039
  band:
  - # 1
    frequency:   79.1965930413
  - # 2
    frequency:   83.8773395081
  - # 3
    frequency:   91.9011889913
  - # 4
    frequency:  132.6137852217
  - # 5
    frequency:  145.4146227741
  - # 6
    frequency:  152.4416302018
  - # 7
    frequency:  224.0848936352
  - # 8
    frequency:  243.2190696143
  - # 9
    frequency:  255.2950188296

- q-position: [    0.2200000,    0.2200000,    0.0000000 ]
  distance:    0.1239603
  band:
  - # 1
    frequency:   81.5799755298
  - # 2
    frequency:   83.5032620019
  - # 3
    frequency:   92.9751922413
  - # 4
    frequency:  133.5354382190
  - # 5
    frequency:  145.4524550868
  - # 6
    frequency:  152.2634696589
  - # 7
    frequency:  223.3513172957
  - # 8
    frequency:  243.5989485733
  - # 9
    frequency:  254.2804584979

- q-position: [    0.2266667,    0.2266667,    0.0000000 ]
  distance:    0.1277167
  band:
  - # 1
    frequency:   82.5064341718
  - # 2
    frequency:   83.8546806343
  - # 3
    frequency:   94.4118773599
  - # 4
    frequency:  134.4507689145
  - # 5
    frequency:  145.4088802074
  - # 6
    frequency:  152.0759862759
  - # 7
    frequency:  222.6306449150
  - # 8
    frequency:  243.9732409764
  - # 9
    frequency:  253.3170369942

- q-position: [    0.2333333,    0.2333333,    0.0000000 ]
  distance:    0.1314730
  band:
  - # 1
    frequency:   81.1020203868
  - # 2
    frequency:   86.0147668560
  - # 3
    frequency:   96.0250606855
  - # 4
    frequency:  135.3537435669
  - # 5
    frequency:  145.2919336881
  - # 6
    frequency:  151.8675728766
  - # 7
    frequency:  221.9297310792
  - # 8
    frequency:  244.3412939344
  - # 9
    frequency:  252.4076427233

- q-position: [    0.2400000,    0.2400000,    0.0000000 ]
  distance:    0.1352294
  band:
  - # 1
    frequency:   79.4302977045
  - # 2
    frequency:   88.0545333934
  - # 3
    frequency:   97.7041925985
  - # 4
    frequency:  136.2371538262
  - # 5
    frequency:  145.1114902092
  - # 6
    frequency:  151.6288782024
  - # 7
    frequency:  221.2546887411
  - # 8
    frequency:  244.7022438215
  - # 9
    frequency:  251.5547382845

- q-position: [    0.2466667,    0.2466667,    0.0000000 ]
  distance:    0.1389858
  band:
  - # 1
    frequency:   77.5792130103
  - # 2
    frequency:   89.9685159075
  - # 3
    frequency:   99.3914037021
  - # 4
    frequency:  137.0921815141
  - # 5
    frequency:  144.8796933230
  - # 6
    frequency:  151.3532055815
  - # 7
    frequency:  220.6108543163
  - # 8
    frequency:  245.0549776388
  - # 9
    frequency:  250.7603620795

- q-position: [    0.2533333,    0.2533333,    0.0000000 ]
  distance:    0.1427422
  band:
  - # 1
    frequency:   75.6109326774
  - # 2
    frequency:   91.7514903623
  - # 3
    frequency:  101.0546722797
  - # 4
    frequency:  137.9076310572
  - # 5
    frequency:  144.6117102189
  - # 6
    frequency:  151.0367612275
  - # 7
    frequency:  220.0027888834
  - # 8
    frequency:  245.3981012858
  - # 9
    frequency:  250.0261351138

- q-position: [    0.2600000,    0.2600000,    0.0000000 ]
  distance:    0.1464985
  band:
  - # 1
    frequency:   73.5756293814
  - # 2
    frequency:   93.3984934846
  - # 3
    frequency:  102.6738225914
  - # 4
    frequency:  138.6685293125
  - # 5
    frequency:  144.3271039279
  - # 6
    frequency:  150.6787926484
  - # 7
    frequency:  219.4343099986
  - # 8
    frequency:  245.7299175541
  - # 9
    frequency:  249.3532715209

- q-position: [    0.2666667,    0.2666667,    0.0000000 ]
  distance:    0.1502549
  band:
  - # 1
    frequency:   71.5179557892
  - # 2
    frequency:   94.9048719395
  - # 3
    frequency:  104.2338536301
  - # 4
    frequency:  139.3536428441
  - # 5
    frequency:  144.0522617287
  - # 6
    frequency:  150.2816557831
  - # 7
    frequency:  218.9085471998
  - # 8
    frequency:  246.0484158677
  - # 9
    frequency:  248.7425910984

- q-position: [    0.2733333,    0.2733333,    0.0000000 ]
  distance:    0.1540113
  band:
  - # 1
    frequency:   69.4801425974
  - # 2
    frequency:   96.2663752011
  - # 3
    frequency:  105.7216093266
  - # 4
    frequency:  139.9318878444
  - # 5
    frequency:  143.8238904827
  - # 6
    frequency:  149.8508400452
  - # 7
    frequency:  218.4280135169
  - # 8
    frequency:  246.3512749389
  - # 9
    frequency:  248.1945320963

- q-position: [    0.2800000,    0.2800000,    0.0000000 ]
  distance:    0.1577676
  band:
  - # 1
    frequency:   67.5034859567
  - # 2
    frequency:   97.4793079653
  - # 3
    frequency:  107.1239759549
  - # 4
    frequency:  140.3612890511
  - # 5
    frequency:  143.6899073733
  - # 6
    frequency:  149.3949647097
  - # 7
    frequency:  217.9946852906
  - # 8
    frequency:  246.6358786702
  - # 9
    frequency:  247.7091626615

- q-position: [    0.2866667,    0.2866667,    0.0000000 ]
  distance:    0.1615240
  band:
  - # 1
    frequency:   65.6289473844
  - # 2
    frequency:   98.5407550163
  - # 3
    frequency:  108.4268423514
  - # 4
    frequency:  140.6041144782
  - # 5
    frequency:  143.6940865223
  - # 6
    frequency:  148.9257377423
  - # 7
    frequency:  217.6100832640
  - # 8
    frequency:  246.8993448742
  - # 9
    frequency:  247.2861897129

- q-position: [    0.2933333,    0.2933333,    0.0000000 ]
  distance:    0.1652804
  band:
  - # 1
    frequency:   63.8971440344
  - # 2
    frequency:   99.4488829524
  - # 3
    frequency:  109.6145226107
  - # 4
    frequency:  140.6640412722
  - # 5
    frequency:  143.8386013277
  - # 6
    frequency:  148.4578384929
  - # 7
    frequency:  217.2753491162
  - # 8
    frequency:  246.9249645580
  - # 9
    frequency:  247.1385657621

- q-position: [    0.3000000,    0.3000000,    0.0000000 ]
  distance:    0.1690368
  band:
  - # 1
    frequency:   62.3478229129
  - # 2
    frequency:  100.2033081705
  - # 3
    frequency:  110.6695611488
  - # 4
    frequency:  140.5967755769
  - # 5
    frequency:  144.0730490277
  - # 6
    frequency:  148.0086498272
  - # 7
    frequency:  216.9913131217
  - # 8
    frequency:  246.6244852138
  - # 9
    frequency:  247.3502586909

- q-position: [    0.3066667,    0.3066667,    0.0000000 ]
  distance:    0.1727931
  band:
  - # 1
    frequency:   61.0188525539
  - # 2
    frequency:  100.8055002575
  - # 3
    frequency:  111.5729554897
  - # 4
    frequency:  140.4704630793
  - # 5
    frequency:  144.3336496588
  - # 6
    frequency:  147.5977305031
  - # 7
    frequency:  216.7585502360
  - # 8
    frequency:  246.3833960693
  - # 9
    frequency:  247.5310253742

- q-position: [    0.3133333,    0.3133333,    0.0000000 ]
  distance:    0.1765495
  band:
  - # 1
    frequency:   59.9447788595
  - # 2
    frequency:  101.2591688316
  - # 3
    frequency:  112.3048838287
  - # 4
    frequency:  140.3356472563
  - # 5
    frequency:  144.5729115913
  - # 6
    frequency:  147.2459033512
  - # 7
    frequency:  216.5774234186
  - # 8
    frequency:  246.1999861483
  - # 9
    frequency:  247.6774176245

- q-position: [    0.3200000,    0.3200000,    0.0000000 ]
  distance:    0.1803059
  band:
  - # 1
    frequency:   59.1550548547
  - # 2
    frequency:  101.5705673446
  - # 3
    frequency:  112.8460059218
  - # 4
    frequency:  140.2232296289
  - # 5
    frequency:  144.7613724903
  - # 6
    frequency:  146.9738702448
  - # 7
    frequency:  216.4481142839
  - # 8
    frequency:  246.0721877109
  - # 9
    frequency:  247.7860076875

- q-position: [    0.3266667,    0.3266667,    0.0000000 ]
  distance:    0.1840623
  band:
  - # 1
    frequency:   58.6721429145
  - # 2
    frequency:  101.7486473139
  - # 3
    frequency:  113.1792960584
  - # 4
    frequency:  140.1504483964
  - # 5
    frequency:  144.8814621932
  - # 6
    frequency:  146.8003828239
  - # 7
    frequency:  216.3706421339
  - # 8
    frequency:  245.9975771975
  - # 9
    frequency:  247.8534613053

- q-position: [    0.3333333,    0.3333333,    0.0000000 ]
  distance:    0.1878186
  band:
  - # 1
    frequency:   58.5097664335
  - # 2
    frequency:  101.8050151150
  - # 3
    frequency:  113.2921719395
  - # 4
    frequency:  140.1254981726
  - # 5
    frequency:  144.9229089455
  - # 6
    frequency:  146.7401972465
  - # 7
    frequency:  216.3448730686
  - # 8
    frequency:  245.9733805376
  - # 9
    frequency:  247.8766117878

- q-position: [    0.3333333,    0.3333333,    0.0000000 ]
  distance:    0.1878186
  band:
  - # 1
    frequency:   58.5097664335
  - # 2
    frequency:  101.8050151150
  - # 3
    frequency:  113.2921719395
  - # 4
    frequency:  140.1254981726
  - # 5
    frequency:  144.9229089455
  - # 6
    frequency:  146.7401972465
  - # 7
    frequency:  216.3448730686
  - # 8
    frequency:  245.9733805376
  - # 9
    frequency:  247.8766117878

- q-position: [    0.3366667,    0.3266667,    0.0000000 ]
  distance:    0.1896968
  band:
  - # 1
    frequency:   58.5503451924
  - # 2
    frequency:  101.7918513150
  - # 3
    frequency:  113.2637375956
  - # 4
    frequency:  140.1317103228
  - # 5
    frequency:  144.9123149562
  - # 6
    frequency:  146.7556489526
  - # 7
    frequency:  216.3512938861
  - # 8
    frequency:  245.9792273324
  - # 9
    frequency:  247.8706477097

- q-position: [    0.3400000,    0.3200000,    0.0000000 ]
  distance:    0.1915750
  band:
  - # 1
    frequency:   58.6716123932
  - # 2
    frequency:  101.7536776287
  - # 3
    frequency:  113.1784799722
  - # 4
    frequency:  140.1501026133
  - # 5
    frequency:  144.8803875118
  - # 6
    frequency:  146.8022475799
  - # 7
    frequency:  216.3705212081
  - # 8
    frequency:  245.9964846022
  - # 9
    frequency:  247.8525335379

- q-position: [    0.3433333,    0.3133333,    0.0000000 ]
  distance:    0.1934532
  band:
  - # 1
    frequency:   58.8723612012
  - # 2
    frequency:  101.6925475975
  - # 3
    frequency:  113.0368535426
  - # 4
    frequency:  140.1800817483
  - # 5
    frequency:  144.8270952619
  - # 6
    frequency:  146.8800190242
  - # 7
    frequency:  216.4024948004
  - # 8
    frequency:  246.0247133286
  - # 9
    frequency:  247.8219529971

- q-position: [    0.3466667,    0.3066667,    0.0000000 ]
  distance:    0.1953314
  band:
  - # 1
    frequency:   59.1507253516
  - # 2
    frequency:  101.6106021514
  - # 3
    frequency:  112.8398270285
  - # 4
    frequency:  140.2207492101
  - # 5
    frequency:  144.7526717045
  - # 6
    frequency:  146.9885458793
  - # 7
    frequency:  216.4471441399
  - # 8
    frequency:  246.0634561094
  - # 9
    frequency:  247.7786136729

- q-position: [    0.3500000,    0.3000000,    0.0000000 ]
  distance:    0.1972096
  band:
  - # 1
    frequency:   59.5042030020
  - # 2
    frequency:  101.5100498663
  - # 3
    frequency:  112.5888688489
  - # 4
    frequency:  140.2708817683
  - # 5
    frequency:  144.6576516024
  - # 6
    frequency:  147.1269934063
  - # 7
    frequency:  216.5043880943
  - # 8
    frequency:  246.1122381975
  - # 9
    frequency:  247.7222490668

- q-position: [    0.3533333,    0.2933333,    0.0000000 ]
  distance:    0.1990877
  band:
  - # 1
    frequency:   59.9296903527
  - # 2
    frequency:  101.3931468635
  - # 3
    frequency:  112.2859189195
  - # 4
    frequency:  140.3288862540
  - # 5
    frequency:  144.5429331497
  - # 6
    frequency:  147.2941504970
  - # 7
    frequency:  216.5741345803
  - # 8
    frequency:  246.1705686633
  - # 9
    frequency:  247.6526205822

- q-position: [    0.3566667,    0.2866667,    0.0000000 ]
  distance:    0.2009659
  band:
  - # 1
    frequency:   60.4235227907
  - # 2
    frequency:  101.2621768470
  - # 3
    frequency:  111.9333506599
  - # 4
    frequency:  140.3927177782
  - # 5
    frequency:  144.4098762203
  - # 6
    frequency:  147.4884818937
  - # 7
    frequency:  216.6562802106
  - # 8
    frequency:  246.2379416750
  - # 9
    frequency:  247.5695194365

- q-position: [    0.3600000,    0.2800000,    0.0000000 ]
  distance:    0.2028441
  band:
  - # 1
    frequency:   60.9815209916
  - # 2
    frequency:  101.1194316954
  - # 3
    frequency:  111.5339276720
  - # 4
    frequency:  140.4597450993
  - # 5
    frequency:  144.2604525873
  - # 6
    frequency:  147.7081873474
  - # 7
    frequency:  216.7507099353
  - # 8
    frequency:  246.3138378847
  - # 9
    frequency:  247.4727684965

- q-position: [    0.3633333,    0.2733333,    0.0000000 ]
  distance:    0.2047223
  band:
  - # 1
    frequency:   61.5990392866
  - # 2
    frequency:  100.9671929373
  - # 3
    frequency:  111.0907595893
  - # 4
    frequency:  140.5265407725
  - # 5
    frequency:  144.0974701706
  - # 6
    frequency:  147.9512634038
  - # 7
    frequency:  216.8572966833
  - # 8
    frequency:  246.3977259108
  - # 9
    frequency:  247.3622240337

- q-position: [    0.3666667,    0.2666667,    0.0000000 ]
  distance:    0.2066005
  band:
  - # 1
    frequency:   62.2710136516
  - # 2
    frequency:  100.8077143392
  - # 3
    frequency:  110.6072611417
  - # 4
    frequency:  140.5885713649
  - # 5
    frequency:  143.9248958195
  - # 6
    frequency:  148.2155639858
  - # 7
    frequency:  216.9759010030
  - # 8
    frequency:  246.4890639024
  - # 9
    frequency:  247.2377774001

- q-position: [    0.3700000,    0.2600000,    0.0000000 ]
  distance:    0.2084787
  band:
  - # 1
    frequency:   62.9920068859
  - # 2
    frequency:  100.6432057528
  - # 3
    frequency:  110.0871177142
  - # 4
    frequency:  140.6397790957
  - # 5
    frequency:  143.7482851518
  - # 6
    frequency:  148.4988567473
  - # 7
    frequency:  217.1063707021
  - # 8
    frequency:  246.5873011703
  - # 9
    frequency:  247.0993566244

- q-position: [    0.3733333,    0.2533333,    0.0000000 ]
  distance:    0.2103569
  band:
  - # 1
    frequency:   63.7562488611
  - # 2
    frequency:  100.4758182836
  - # 3
    frequency:  109.5342597616
  - # 4
    frequency:  140.6721190468
  - # 5
    frequency:  143.5752552729
  - # 6
    frequency:  148.7988731032
  - # 7
    frequency:  217.2485404814
  - # 8
    frequency:  246.6918798703
  - # 9
    frequency:  246.9469279325

- q-position: [    0.3766667,    0.2466667,    0.0000000 ]
  distance:    0.2122351
  band:
  - # 1
    frequency:   64.5576701226
  - # 2
    frequency:  100.3076307804
  - # 3
    frequency:  108.9528475233
  - # 4
    frequency:  140.6753132889
  - # 5
    frequency:  143.4157390659
  - # 6
    frequency:  149.1133507582
  - # 7
    frequency:  217.4022315524
  - # 8
    frequency:  246.7804971964
  - # 9
    frequency:  246.8022367206

- q-position: [    0.3800000,    0.2400000,    0.0000000 ]
  distance:    0.2141132
  band:
  - # 1
    frequency:   65.3899275721
  - # 2
    frequency:  100.1406375934
  - # 3
    frequency:  108.3472666533
  - # 4