
     Program PWSCF v.6.6 starts on 12Dec2022 at 17:27:51 

     This program is part of the open-source Quantum ESPRESSO suite
     for quantum simulation of materials; please cite
         "P. Giannozzi et al., J. Phys.:Condens. Matter 21 395502 (2009);
         "P. Giannozzi et al., J. Phys.:Condens. Matter 29 465901 (2017);
          URL http://www.quantum-espresso.org", 
     in publications or presentations arising from this work. More details at
     http://www.quantum-espresso.org/quote

     Parallel version (MPI), running on    24 processors

     MPI processes distributed on     1 nodes
     R & G space division:  proc/nbgrp/npool/nimage =      24
     Fft bands division:     nmany     =       1
     Reading input from INCAR-scf.pw
Warning: card &CELL ignored
Warning: card     CELL_DYNAMICS  = "BFGS" ignored
Warning: card     ! CELL_DOFREE = "XY" ignored
Warning: card / ignored

     Current dimensions of program PWSCF are:
     Max number of different atomic species (ntypx) = 10
     Max number of k-points (npk) =  40000
     Max angular momentum in pseudopotentials (lmaxx) =  3

     Subspace diagonalization in iterative solution of the eigenvalue problem:
     a serial algorithm will be used

     Found symmetry operation: I + ( -0.5000 -0.5000  0.0000)
     This is a supercell, fractional translations are disabled
     Message from routine setup:
     using ibrav=0 with symmetry is DISCOURAGED, use correct ibrav instead
 
     Parallelization info
     --------------------
     sticks:   dense  smooth     PW     G-vecs:    dense   smooth      PW
     Min          64      31      9                11602     3861     633
     Max          65      32     10                11619     3876     652
     Sum        1551     747    223               278647    92757   15341
 


     bravais-lattice index     =            0
     lattice parameter (alat)  =       8.2635  a.u.
     unit-cell volume          =    1475.2768 (a.u.)^3
     number of atoms/cell      =            4
     number of atomic types    =            2
     number of electrons       =        16.00
     number of Kohn-Sham states=            8
     kinetic-energy cutoff     =      60.0000  Ry
     charge density cutoff     =     500.0000  Ry
     convergence threshold     =      1.0E-10
     mixing beta               =       0.7000
     number of iterations used =            8  plain     mixing
     Exchange-correlation= PBE
                           (   1   4   3   4   0   0   0)
     nstep                     =          100


     celldm(1)=   8.263513  celldm(2)=   0.000000  celldm(3)=   0.000000
     celldm(4)=   0.000000  celldm(5)=   0.000000  celldm(6)=   0.000000

     crystal axes: (cart. coord. in units of alat)
               a(1) = (   1.000000   0.000000   0.000000 )  
               a(2) = (   0.000000   0.571630   0.000000 )  
               a(3) = (   0.000000   0.000000   4.573663 )  

     reciprocal axes: (cart. coord. in units 2 pi/alat)
               b(1) = (  1.000000  0.000000  0.000000 )  
               b(2) = (  0.000000  1.749382  0.000000 )  
               b(3) = (  0.000000  0.000000  0.218643 )  


     PseudoPot. # 1 for B  read from file:
     ./B_pbe_v1.01.uspp.F.UPF
     MD5 check sum: d081ebb89d0c768e112975f650467a00
     Pseudo is Ultrasoft + core correction, Zval =  3.0
     Generated by new atomic code, or converted to UPF format
     Using radial grid of  781 points,  4 beta functions with: 
                l(1) =   0
                l(2) =   0
                l(3) =   1
                l(4) =   1
     Q(r) pseudized with  8 coefficients,  rinner =    1.100   1.100   1.100


     PseudoPot. # 2 for N  read from file:
     ./N.oncvpsp.upf
     MD5 check sum: 563d65bfb082928f0c9eb97172f6c357
     Pseudo is Norm-conserving + core correction, Zval =  5.0
     Generated using ONCVPSP code by D. R. Hamann
     Using radial grid of 1058 points,  4 beta functions with: 
                l(1) =   0
                l(2) =   0
                l(3) =   1
                l(4) =   1

     atomic species   valence    mass     pseudopotential
        B              3.00    10.81100     B ( 1.00)
        N              5.00    14.00674     N ( 1.00)

      4 Sym. Ops. (no inversion) found



   Cartesian axes

     site n.     atom                  positions (alat units)
         1           N   tau(   1) = (   0.0000144   0.0000000   2.2868315  )
         2           B   tau(   2) = (   0.3333441   0.0000000   2.2868315  )
         3           N   tau(   3) = (   0.5000146   0.2858152   2.2868315  )
         4           B   tau(   4) = (   0.8333439   0.2858152   2.2868315  )

     number of k points=    64
                       cart. coord. in units 2pi/alat
        k(    1) = (   0.0000000   0.0000000   0.0000000), wk =   0.0102041
        k(    2) = (   0.0000000   0.1249559   0.0000000), wk =   0.0204082
        k(    3) = (   0.0000000   0.2499118   0.0000000), wk =   0.0204082
        k(    4) = (   0.0000000   0.3748676   0.0000000), wk =   0.0204082
        k(    5) = (   0.0000000   0.4998235   0.0000000), wk =   0.0204082
        k(    6) = (   0.0000000   0.6247794   0.0000000), wk =   0.0204082
        k(    7) = (   0.0000000   0.7497353   0.0000000), wk =   0.0204082
        k(    8) = (   0.0000000  -0.8746911   0.0000000), wk =   0.0102041
        k(    9) = (   0.0714286   0.0000000   0.0000000), wk =   0.0204082
        k(   10) = (   0.0714286   0.1249559   0.0000000), wk =   0.0408163
        k(   11) = (   0.0714286   0.2499118   0.0000000), wk =   0.0408163
        k(   12) = (   0.0714286   0.3748676   0.0000000), wk =   0.0408163
        k(   13) = (   0.0714286   0.4998235   0.0000000), wk =   0.0408163
        k(   14) = (   0.0714286   0.6247794   0.0000000), wk =   0.0408163
        k(   15) = (   0.0714286   0.7497353   0.0000000), wk =   0.0408163
        k(   16) = (   0.0714286  -0.8746911   0.0000000), wk =   0.0204082
        k(   17) = (   0.1428571   0.0000000   0.0000000), wk =   0.0204082
        k(   18) = (   0.1428571   0.1249559   0.0000000), wk =   0.0408163
        k(   19) = (   0.1428571   0.2499118   0.0000000), wk =   0.0408163
        k(   20) = (   0.1428571   0.3748676   0.0000000), wk =   0.0408163
        k(   21) = (   0.1428571   0.4998235   0.0000000), wk =   0.0408163
        k(   22) = (   0.1428571   0.6247794   0.0000000), wk =   0.0408163
        k(   23) = (   0.1428571   0.7497353   0.0000000), wk =   0.0408163
        k(   24) = (   0.1428571  -0.8746911   0.0000000), wk =   0.0204082
        k(   25) = (   0.2142857   0.0000000   0.0000000), wk =   0.0204082
        k(   26) = (   0.2142857   0.1249559   0.0000000), wk =   0.0408163
        k(   27) = (   0.2142857   0.2499118   0.0000000), wk =   0.0408163
        k(   28) = (   0.2142857   0.3748676   0.0000000), wk =   0.0408163
        k(   29) = (   0.2142857   0.4998235   0.0000000), wk =   0.0408163
        k(   30) = (   0.2142857   0.6247794   0.0000000), wk =   0.0408163
        k(   31) = (   0.2142857   0.7497353   0.0000000), wk =   0.0408163
        k(   32) = (   0.2142857  -0.8746911   0.0000000), wk =   0.0204082
        k(   33) = (   0.2857143   0.0000000   0.0000000), wk =   0.0204082
        k(   34) = (   0.2857143   0.1249559   0.0000000), wk =   0.0408163
        k(   35) = (   0.2857143   0.2499118   0.0000000), wk =   0.0408163
        k(   36) = (   0.2857143   0.3748676   0.0000000), wk =   0.0408163
        k(   37) = (   0.2857143   0.4998235   0.0000000), wk =   0.0408163
        k(   38) = (   0.2857143   0.6247794   0.0000000), wk =   0.0408163
        k(   39) = (   0.2857143   0.7497353   0.0000000), wk =   0.0408163
        k(   40) = (   0.2857143  -0.8746911   0.0000000), wk =   0.0204082
        k(   41) = (   0.3571429   0.0000000   0.0000000), wk =   0.0204082
        k(   42) = (   0.3571429   0.1249559   0.0000000), wk =   0.0408163
        k(   43) = (   0.3571429   0.2499118   0.0000000), wk =   0.0408163
        k(   44) = (   0.3571429   0.3748676   0.0000000), wk =   0.0408163
        k(   45) = (   0.3571429   0.4998235   0.0000000), wk =   0.0408163
        k(   46) = (   0.3571429   0.6247794   0.0000000), wk =   0.0408163
        k(   47) = (   0.3571429   0.7497353   0.0000000), wk =   0.0408163
        k(   48) = (   0.3571429  -0.8746911   0.0000000), wk =   0.0204082
        k(   49) = (   0.4285714   0.0000000   0.0000000), wk =   0.0204082
        k(   50) = (   0.4285714   0.1249559   0.0000000), wk =   0.0408163
        k(   51) = (   0.4285714   0.2499118   0.0000000), wk =   0.0408163
        k(   52) = (   0.4285714   0.3748676   0.0000000), wk =   0.0408163
        k(   53) = (   0.4285714   0.4998235   0.0000000), wk =   0.0408163
        k(   54) = (   0.4285714   0.6247794   0.0000000), wk =   0.0408163
        k(   55) = (   0.4285714   0.7497353   0.0000000), wk =   0.0408163
        k(   56) = (   0.4285714  -0.8746911   0.0000000), wk =   0.0204082
        k(   57) = (  -0.5000000   0.0000000   0.0000000), wk =   0.0102041
        k(   58) = (  -0.5000000   0.1249559   0.0000000), wk =   0.0204082
        k(   59) = (  -0.5000000   0.2499118   0.0000000), wk =   0.0204082
        k(   60) = (  -0.5000000   0.3748676   0.0000000), wk =   0.0204082
        k(   61) = (  -0.5000000   0.4998235   0.0000000), wk =   0.0204082
        k(   62) = (  -0.5000000   0.6247794   0.0000000), wk =   0.0204082
        k(   63) = (  -0.5000000   0.7497353   0.0000000), wk =   0.0204082
        k(   64) = (  -0.5000000  -0.8746911   0.0000000), wk =   0.0102041

     Dense  grid:   278647 G-vectors     FFT dimensions: (  60,  36, 270)

     Smooth grid:    92757 G-vectors     FFT dimensions: (  45,  24, 192)

     Estimated max dynamical RAM per process >      20.41 MB

     Estimated total dynamical RAM >     489.95 MB

     Check: negative core charge=   -0.000004

     Initial potential from superposition of free atoms

     starting charge   15.99942, renormalised to   16.00000

     negative rho (up, down):  1.559E-05 0.000E+00
     Starting wfcs are   16 randomized atomic wfcs

     total cpu time spent up to now is        1.3 secs

     Self-consistent Calculation

     iteration #  1     ecut=    60.00 Ry     beta= 0.70
     Davidson diagonalization with overlap
     ethr =  1.00E-02,  avg # of iterations =  2.0

     negative rho (up, down):  5.454E-07 0.000E+00

     total cpu time spent up to now is        2.1 secs

     total energy              =     -54.59470594 Ry
     estimated scf accuracy    <       0.78986706 Ry

     iteration #  2     ecut=    60.00 Ry     beta= 0.70
     Davidson diagonalization with overlap
     ethr =  4.94E-03,  avg # of iterations =  2.9

     negative rho (up, down):  7.517E-06 0.000E+00

     total cpu time spent up to now is        2.8 secs

     total energy              =     -54.84505175 Ry
     estimated scf accuracy    <       0.22444926 Ry

     iteration #  3     ecut=    60.00 Ry     beta= 0.70
     Davidson diagonalization with overlap
     ethr =  1.40E-03,  avg # of iterations =  2.0

     negative rho (up, down):  2.031E-05 0.000E+00

     total cpu time spent up to now is        3.5 secs

     total energy              =     -54.84863202 Ry
     estimated scf accuracy    <       0.02638402 Ry

     iteration #  4     ecut=    60.00 Ry     beta= 0.70
     Davidson diagonalization with overlap
     ethr =  1.65E-04,  avg # of iterations =  6.4

     negative rho (up, down):  1.026E-05 0.000E+00

     total cpu time spent up to now is        4.5 secs

     total energy              =     -54.86638040 Ry
     estimated scf accuracy    <       0.08221029 Ry

     iteration #  5     ecut=    60.00 Ry     beta= 0.70
     Davidson diagonalization with overlap
     ethr =  1.65E-04,  avg # of iterations =  2.0

     negative rho (up, down):  1.045E-05 0.000E+00

     total cpu time spent up to now is        5.1 secs

     total energy              =     -54.87038576 Ry
     estimated scf accuracy    <       0.01908768 Ry

     iteration #  6     ecut=    60.00 Ry     beta= 0.70
     Davidson diagonalization with overlap
     ethr =  1.19E-04,  avg # of iterations =  1.0

     negative rho (up, down):  9.779E-06 0.000E+00

     total cpu time spent up to now is        5.7 secs

     total energy              =     -54.86539706 Ry
     estimated scf accuracy    <       0.01556219 Ry

     iteration #  7     ecut=    60.00 Ry     beta= 0.70
     Davidson diagonalization with overlap
     ethr =  9.73E-05,  avg # of iterations =  2.7

     negative rho (up, down):  9.334E-06 0.000E+00

     total cpu time spent up to now is        6.4 secs

     total energy              =     -54.86740093 Ry
     estimated scf accuracy    <       0.00169438 Ry

     iteration #  8     ecut=    60.00 Ry     beta= 0.70
     Davidson diagonalization with overlap
     ethr =  1.06E-05,  avg # of iterations =  4.6

     negative rho (up, down):  9.163E-06 0.000E+00

     total cpu time spent up to now is        7.3 secs

     total energy              =     -54.86847065 Ry
     estimated scf accuracy    <       0.00003318 Ry

     iteration #  9     ecut=    60.00 Ry     beta= 0.70
     Davidson diagonalization with overlap
     ethr =  2.07E-07,  avg # of iterations =  4.5

     negative rho (up, down):  9.175E-06 0.000E+00

     total cpu time spent up to now is        8.1 secs

     total energy              =     -54.86845161 Ry
     estimated scf accuracy    <       0.00006662 Ry

     iteration # 10     ecut=    60.00 Ry     beta= 0.70
     Davidson diagonalization with overlap
     ethr =  2.07E-07,  avg # of iterations =  5.8

     negative rho (up, down):  9.192E-06 0.000E+00

     total cpu time spent up to now is        9.0 secs

     total energy              =     -54.86851023 Ry
     estimated scf accuracy    <       0.00015127 Ry

     iteration # 11     ecut=    60.00 Ry     beta= 0.70
     Davidson diagonalization with overlap
     ethr =  2.07E-07,  avg # of iterations =  1.0

     negative rho (up, down):  9.194E-06 0.000E+00

     total cpu time spent up to now is        9.6 secs

     total energy              =     -54.86847508 Ry
     estimated scf accuracy    <       0.00011511 Ry

     iteration # 12     ecut=    60.00 Ry     beta= 0.70
     Davidson diagonalization with overlap
     ethr =  2.07E-07,  avg # of iterations =  2.1

     negative rho (up, down):  9.195E-06 0.000E+00

     total cpu time spent up to now is       10.3 secs

     total energy              =     -54.86848346 Ry
     estimated scf accuracy    <       0.00002930 Ry

     iteration # 13     ecut=    60.00 Ry     beta= 0.70
     Davidson diagonalization with overlap
     ethr =  1.83E-07,  avg # of iterations =  1.0

     negative rho (up, down):  9.200E-06 0.000E+00

     total cpu time spent up to now is       10.9 secs

     total energy              =     -54.86848372 Ry
     estimated scf accuracy    <       0.00002828 Ry

     iteration # 14     ecut=    60.00 Ry     beta= 0.70
     Davidson diagonalization with overlap
     ethr =  1.77E-07,  avg # of iterations =  1.0

     negative rho (up, down):  9.177E-06 0.000E+00

     total cpu time spent up to now is       11.5 secs

     total energy              =     -54.86847857 Ry
     estimated scf accuracy    <       0.00002725 Ry

     iteration # 15     ecut=    60.00 Ry     beta= 0.70
     Davidson diagonalization with overlap
     ethr =  1.70E-07,  avg # of iterations =  1.0

     negative rho (up, down):  9.187E-06 0.000E+00

     total cpu time spent up to now is       12.1 secs

     total energy              =     -54.86847248 Ry
     estimated scf accuracy    <       0.00001182 Ry

     iteration # 16     ecut=    60.00 Ry     beta= 0.70
     Davidson diagonalization with overlap
     ethr =  7.39E-08,  avg # of iterations =  4.6

     negative rho (up, down):  9.173E-06 0.000E+00

     total cpu time spent up to now is       12.9 secs

     total energy              =     -54.86847730 Ry
     estimated scf accuracy    <       0.00000139 Ry

     iteration # 17     ecut=    60.00 Ry     beta= 0.70
     Davidson diagonalization with overlap
     ethr =  8.67E-09,  avg # of iterations =  2.3

     negative rho (up, down):  9.168E-06 0.000E+00

     total cpu time spent up to now is       13.4 secs

     total energy              =     -54.86847714 Ry
     estimated scf accuracy    <       0.00000062 Ry

     iteration # 18     ecut=    60.00 Ry     beta= 0.70
     Davidson diagonalization with overlap
     ethr =  3.89E-09,  avg # of iterations =  3.2

     negative rho (up, down):  9.168E-06 0.000E+00

     total cpu time spent up to now is       14.1 secs

     total energy              =     -54.86847725 Ry
     estimated scf accuracy    <       0.00000003 Ry

     iteration # 19     ecut=    60.00 Ry     beta= 0.70
     Davidson diagonalization with overlap
     ethr =  1.64E-10,  avg # of iterations =  4.6

     negative rho (up, down):  9.169E-06 0.000E+00

     total cpu time spent up to now is       14.9 secs

     total energy              =     -54.86847727 Ry
     estimated scf accuracy    <          1.6E-09 Ry

     iteration # 20     ecut=    60.00 Ry     beta= 0.70
     Davidson diagonalization with overlap
     ethr =  1.00E-11,  avg # of iterations =  3.5

     negative rho (up, down):  9.169E-06 0.000E+00

     total cpu time spent up to now is       15.7 secs

     total energy              =     -54.86847727 Ry
     estimated scf accuracy    <          2.3E-09 Ry

     iteration # 21     ecut=    60.00 Ry     beta= 0.70
     Davidson diagonalization with overlap
     ethr =  1.00E-11,  avg # of iterations =  1.1

     negative rho (up, down):  9.169E-06 0.000E+00

     total cpu time spent up to now is       16.3 secs

     total energy              =     -54.86847727 Ry
     estimated scf accuracy    <          3.1E-09 Ry

     iteration # 22     ecut=    60.00 Ry     beta= 0.70
     Davidson diagonalization with overlap
     ethr =  1.00E-11,  avg # of iterations =  1.0

     negative rho (up, down):  9.169E-06 0.000E+00

     total cpu time spent up to now is       16.9 secs

     total energy              =     -54.86847727 Ry
     estimated scf accuracy    <          2.3E-09 Ry

     iteration # 23     ecut=    60.00 Ry     beta= 0.70
     Davidson diagonalization with overlap
     ethr =  1.00E-11,  avg # of iterations =  4.8

     negative rho (up, down):  9.169E-06 0.000E+00

     total cpu time spent up to now is       17.7 secs

     total energy              =     -54.86847727 Ry
     estimated scf accuracy    <          3.6E-09 Ry

     iteration # 24     ecut=    60.00 Ry     beta= 0.70
     Davidson diagonalization with overlap
     ethr =  1.00E-11,  avg # of iterations =  1.9

     negative rho (up, down):  9.169E-06 0.000E+00

     total cpu time spent up to now is       18.3 secs

     total energy              =     -54.86847727 Ry
     estimated scf accuracy    <          1.0E-09 Ry

     iteration # 25     ecut=    60.00 Ry     beta= 0.70
     Davidson diagonalization with overlap
     ethr =  6.23E-12,  avg # of iterations =  3.0

     negative rho (up, down):  9.169E-06 0.000E+00

     total cpu time spent up to now is       19.0 secs

     End of self-consistent calculation

          k = 0.0000 0.0000 0.0000 ( 11547 PWs)   bands (ev):

   -21.6766 -18.6676 -12.9603  -9.2705  -8.1245  -5.4775  -5.4296  -5.0347

          k = 0.0000 0.1250 0.0000 ( 11559 PWs)   bands (ev):

   -21.6027 -18.6180 -12.9003  -9.1714  -8.4189  -5.7431  -5.6204  -4.9621

          k = 0.0000 0.2499 0.0000 ( 11537 PWs)   bands (ev):

   -21.3830 -18.4789 -12.7220  -9.1766  -8.8755  -6.5644  -6.0318  -4.7555

          k = 0.0000 0.3749 0.0000 ( 11550 PWs)   bands (ev):

   -21.0246 -18.2848 -12.4343 -10.1297  -8.3912  -7.6639  -6.6613  -4.4580

          k = 0.0000 0.4998 0.0000 ( 11538 PWs)   bands (ev):

   -20.5414 -18.1062 -12.0806 -10.9789  -8.8475  -7.7337  -7.4372  -4.1729

          k = 0.0000 0.6248 0.0000 ( 11594 PWs)   bands (ev):

   -19.9594 -18.0585 -11.9744 -11.1857  -9.9835  -8.2843  -6.9321  -4.0963

          k = 0.0000 0.7497 0.0000 ( 11590 PWs)   bands (ev):

   -19.3242 -18.2586 -12.0312 -10.9665 -10.6619  -9.1376  -6.0376  -4.4313

          k = 0.0000-0.8747 0.0000 ( 11648 PWs)   bands (ev):

   -18.7170 -18.7170 -11.6890 -11.6890  -9.9453  -9.9453  -5.1479  -5.1479

          k = 0.0714 0.0000 0.0000 ( 11553 PWs)   bands (ev):

   -21.6525 -18.7386 -12.8483  -9.2381  -8.0986  -5.5853  -5.4771  -5.1466

          k = 0.0714 0.1250 0.0000 ( 11568 PWs)   bands (ev):

   -21.5787 -18.6880 -12.7905  -9.1390  -8.3930  -5.8531  -5.6571  -5.0727

          k = 0.0714 0.2499 0.0000 ( 11552 PWs)   bands (ev):

   -21.3594 -18.5456 -12.6202  -9.1484  -8.8436  -6.6657  -6.0543  -4.8619

          k = 0.0714 0.3749 0.0000 ( 11553 PWs)   bands (ev):

   -21.0017 -18.3446 -12.3524 -10.0918  -8.3600  -7.7666  -6.6517  -4.5561

          k = 0.0714 0.4998 0.0000 ( 11562 PWs)   bands (ev):

   -20.5199 -18.1541 -12.0626 -10.8947  -8.9528  -7.7041  -7.3931  -4.2539

          k = 0.0714 0.6248 0.0000 ( 11604 PWs)   bands (ev):

   -19.9404 -18.0885 -12.0681 -11.0144 -10.0907  -8.2094  -6.9054  -4.1464

          k = 0.0714 0.7497 0.0000 ( 11614 PWs)   bands (ev):

   -19.3099 -18.2687 -12.1322 -11.0740 -10.5132  -9.0361  -6.0167  -4.4460

          k = 0.0714-0.8747 0.0000 ( 11640 PWs)   bands (ev):

   -18.7116 -18.7116 -11.7940 -11.7940  -9.8203  -9.8203  -5.1385  -5.1385

          k = 0.1429 0.0000 0.0000 ( 11559 PWs)   bands (ev):

   -21.5804 -18.9349 -12.5296  -9.1412  -8.0226  -5.8961  -5.6131  -5.4479

          k = 0.1429 0.1250 0.0000 ( 11570 PWs)   bands (ev):

   -21.5069 -18.8816 -12.4782  -9.0424  -8.3155  -6.1438  -5.7905  -5.3711

          k = 0.1429 0.2499 0.0000 ( 11556 PWs)   bands (ev):

   -21.2887 -18.7304 -12.3304  -9.0637  -8.7481  -6.9295  -6.1529  -5.1508

          k = 0.1429 0.3749 0.0000 ( 11550 PWs)   bands (ev):

   -20.9332 -18.5117 -12.1213  -9.9770  -8.2670  -8.0280  -6.6679  -4.8235

          k = 0.1429 0.4998 0.0000 ( 11578 PWs)   bands (ev):

   -20.4555 -18.2900 -12.0036 -10.6552  -9.2172  -7.6158  -7.3160  -4.4777

          k = 0.1429 0.6248 0.0000 ( 11589 PWs)   bands (ev):

   -19.8836 -18.1757 -12.2179 -10.6361 -10.3558  -8.0454  -6.8256  -4.2902

          k = 0.1429 0.7497 0.0000 ( 11591 PWs)   bands (ev):

   -19.2674 -18.2989 -12.3407 -11.3333 -10.1627  -8.7979  -5.9541  -4.4906

          k = 0.1429-0.8747 0.0000 ( 11590 PWs)   bands (ev):

   -18.6961 -18.6961 -12.0360 -12.0360  -9.5210  -9.5210  -5.1119  -5.1119

          k = 0.2143 0.0000 0.0000 ( 11554 PWs)   bands (ev):

   -21.4609 -19.2178 -12.0449  -8.9803  -7.8974  -6.3782  -5.8685  -5.8227

          k = 0.2143 0.1250 0.0000 ( 11552 PWs)   bands (ev):

   -21.3880 -19.1611 -12.0030  -8.8820  -8.1877  -6.5832  -6.0130  -5.7882

          k = 0.2143 0.2499 0.0000 ( 11552 PWs)   bands (ev):

   -21.1717 -18.9988 -11.8910  -8.9231  -8.5900  -7.3007  -6.3602  -5.5557

          k = 0.2143 0.3749 0.0000 ( 11557 PWs)   bands (ev):

   -20.8200 -18.7576 -11.7780  -9.7823  -8.3777  -8.1131  -6.7757  -5.2022

          k = 0.2143 0.4998 0.0000 ( 11582 PWs)   bands (ev):

   -20.3495 -18.4945 -11.8973 -10.2921  -9.5606  -7.4698  -7.2923  -4.8023

          k = 0.2143 0.6248 0.0000 ( 11587 PWs)   bands (ev):

   -19.7904 -18.3131 -12.3169 -10.6913 -10.1733  -7.8913  -6.6942  -4.5118

          k = 0.2143 0.7497 0.0000 ( 11607 PWs)   bands (ev):

   -19.1989 -18.3507 -12.5441 -11.6501  -9.7327  -8.5304  -5.8528  -4.5677

          k = 0.2143-0.8747 0.0000 ( 11596 PWs)   bands (ev):

   -18.6736 -18.6736 -12.3118 -12.3118  -9.1608  -9.1608  -5.0727  -5.0727

          k = 0.2857 0.0000 0.0000 ( 11560 PWs)   bands (ev):

   -21.2954 -19.5473 -11.4384  -8.7570  -7.7258  -6.9904  -6.3448  -6.0849

          k = 0.2857 0.1250 0.0000 ( 11557 PWs)   bands (ev):

   -21.2233 -19.4872 -11.4092  -8.6596  -8.0122  -7.1458  -6.2951  -6.2607

          k = 0.2857 0.2499 0.0000 ( 11551 PWs)   bands (ev):

   -21.0097 -19.3138 -11.3459  -8.7271  -8.3705  -7.7491  -6.6686  -6.0161

          k = 0.2857 0.3749 0.0000 ( 11566 PWs)   bands (ev):

   -20.6636 -19.0497 -11.3663  -9.5040  -8.7720  -7.8999  -7.0030  -5.6368

          k = 0.2857 0.4998 0.0000 ( 11606 PWs)   bands (ev):

   -20.2034 -18.7440 -11.7409  -9.9328  -9.8425  -7.3758  -7.2681  -5.1842

          k = 0.2857 0.6248 0.0000 ( 11601 PWs)   bands (ev):

   -19.6632 -18.4893 -12.3385 -11.0429  -9.6760  -7.8157  -6.5143  -4.7888

          k = 0.2857 0.7497 0.0000 ( 11603 PWs)   bands (ev):

   -19.1077 -18.4242 -12.6912 -11.9668  -9.2889  -8.3065  -5.7171  -4.6790

          k = 0.2857-0.8747 0.0000 ( 11600 PWs)   bands (ev):

   -18.6481 -18.6481 -12.5627 -12.5627  -8.8122  -8.8122  -5.0278  -5.0278

          k = 0.3571 0.0000 0.0000 ( 11556 PWs)   bands (ev):

   -21.0858 -19.8920 -10.7469  -8.4733  -7.6924  -7.5118  -6.8321  -6.3783

          k = 0.3571 0.1250 0.0000 ( 11560 PWs)   bands (ev):

   -21.0149 -19.8290 -10.7344  -8.3773  -7.8001  -7.7928  -6.7448  -6.6088

          k = 0.3571 0.2499 0.0000 ( 11546 PWs)   bands (ev):

   -20.8049 -19.6455 -10.7345  -8.4771  -8.2621  -8.0922  -7.0436  -6.4892

          k = 0.3571 0.3749 0.0000 ( 11575 PWs)   bands (ev):

   -20.4664 -19.3607 -10.9256  -9.1874  -9.1436  -7.6299  -7.3444  -6.0867

          k = 0.3571 0.4998 0.0000 ( 11606 PWs)   bands (ev):

   -20.0198 -19.0159 -11.5352 -10.3056  -9.3432  -7.5862  -7.0136  -5.5875

          k = 0.3571 0.6248 0.0000 ( 11601 PWs)   bands (ev):

   -19.5054 -18.6911 -12.2796 -11.3806  -9.1793  -7.8567  -6.2899  -5.0980

          k = 0.3571 0.7497 0.0000 ( 11601 PWs)   bands (ev):

   -18.9984 -18.5184 -12.7619 -12.2520  -8.8757  -8.1741  -5.5534  -4.8229

          k = 0.3571-0.8747 0.0000 ( 11594 PWs)   bands (ev):

   -18.6245 -18.6245 -12.7585 -12.7585  -8.5245  -8.5245  -4.9859  -4.9859

          k = 0.4286 0.0000 0.0000 ( 11542 PWs)   bands (ev):

   -20.8352 -20.2303 -10.0010  -8.4476  -8.1328  -7.3032  -7.2608  -6.6824

          k = 0.4286 0.1250 0.0000 ( 11566 PWs)   bands (ev):

   -20.7657 -20.1648 -10.0092  -8.5153  -8.0384  -7.5342  -7.2131  -6.9306

          k = 0.4286 0.2499 0.0000 ( 11573 PWs)   bands (ev):

   -20.5606 -19.9727 -10.0920  -8.8325  -8.1753  -7.7589  -7.4416  -6.9478

          k = 0.4286 0.3749 0.0000 ( 11576 PWs)   bands (ev):

   -20.2315 -19.6701 -10.4810  -9.6124  -8.7134  -7.7711  -7.3070  -6.5258

          k = 0.4286 0.4998 0.0000 ( 11590 PWs)   bands (ev):

   -19.8028 -19.2917 -11.2834 -10.6618  -8.8308  -7.9169  -6.7108  -5.9871

          k = 0.4286 0.6248 0.0000 ( 11609 PWs)   bands (ev):

   -19.3218 -18.9052 -12.1455 -11.6856  -8.7171  -8.0283  -6.0266  -5.4184

          k = 0.4286 0.7497 0.0000 ( 11614 PWs)   bands (ev):

   -18.8773 -18.6296 -12.7497 -12.4865  -8.5301  -8.1632  -5.3709  -4.9933

          k = 0.4286-0.8747 0.0000 ( 11586 PWs)   bands (ev):

   -18.6079 -18.6079 -12.8824 -12.8824  -8.3346  -8.3346  -4.9560  -4.9560

          k =-0.5000 0.0000 0.0000 ( 11564 PWs)   bands (ev):

   -20.5480 -20.5480  -9.2266  -9.2266  -7.7404  -7.7404  -6.9810  -6.9810

          k =-0.5000 0.1250 0.0000 ( 11558 PWs)   bands (ev):

   -20.4802 -20.4802  -9.2607  -9.2607  -7.6479  -7.6479  -7.2435  -7.2435

          k =-0.5000 0.2499 0.0000 ( 11578 PWs)   bands (ev):

   -20.2810 -20.2810  -9.4490  -9.4490  -7.8265  -7.8265  -7.3749  -7.3749

          k =-0.5000 0.3749 0.0000 ( 11566 PWs)   bands (ev):

   -19.9637 -19.9637 -10.0433 -10.0433  -8.2423  -8.2423  -6.9364  -6.9363

          k =-0.5000 0.4998 0.0000 ( 11590 PWs)   bands (ev):

   -19.5575 -19.5575 -10.9903 -10.9903  -8.3431  -8.3431  -6.3657  -6.3657

          k =-0.5000 0.6248 0.0000 ( 11624 PWs)   bands (ev):

   -19.1189 -19.1189 -11.9443 -11.9443  -8.3229  -8.3229  -5.7327  -5.7327

          k =-0.5000 0.7497 0.0000 ( 11636 PWs)   bands (ev):

   -18.7518 -18.7518 -12.6559 -12.6558  -8.2848  -8.2848  -5.1802  -5.1802

          k =-0.5000-0.8747 0.0000 ( 11592 PWs)   bands (ev):

   -18.6019 -18.6019 -12.9247 -12.9247  -8.2682  -8.2682  -4.9454  -4.9454

     highest occupied level (ev):    -4.0963

!    total energy              =     -54.86847727 Ry
     estimated scf accuracy    <          2.5E-12 Ry

     The total energy is the sum of the following terms:
     one-electron contribution =    -438.47624446 Ry
     hartree contribution      =     222.47275505 Ry
     xc contribution           =     -18.58906938 Ry
     ewald contribution        =     179.72408152 Ry

     convergence has been achieved in  25 iterations

     negative rho (up, down):  9.169E-06 0.000E+00

     Forces acting on atoms (cartesian axes, Ry/au):

     atom    1 type  2   force =     0.00430387    0.00000000    0.00000000
     atom    2 type  1   force =    -0.00430438    0.00000000    0.00000000
     atom    3 type  2   force =     0.00430146    0.00000000    0.00000000
     atom    4 type  1   force =    -0.00430094    0.00000000    0.00000000

     Total force =     0.008605     Total SCF correction =     0.000001

     BFGS Geometry Optimization

     number of scf cycles    =   1
     number of bfgs steps    =   0

     energy   new            =     -54.8684772711 Ry

     new trust radius        =       0.0043043824 bohr
     new conv_thr            =            1.0E-10 Ry


ATOMIC_POSITIONS (crystal)
N             0.0005352224        0.0000000000        0.5000000000
B             0.3328232526        0.0000000000        0.5000000000
N             0.5005351253        0.5000000000        0.5000000000
B             0.8328233996        0.5000000000        0.5000000000



     Writing output data file ./wfc-out/pwscf.save/
     NEW-OLD atomic charge density approx. for the potential

     Check: negative core charge=   -0.000004

     negative rho (up, down):  9.199E-06 0.000E+00

     total cpu time spent up to now is       22.4 secs

     Self-consistent Calculation

     iteration #  1     ecut=    60.00 Ry     beta= 0.70
     Davidson diagonalization with overlap
     ethr =  1.00E-06,  avg # of iterations =  4.4

     Threshold (ethr) on eigenvalues was too large:
     Diagonalizing with lowered threshold

     Davidson diagonalization with overlap
     ethr =  9.60E-08,  avg # of iterations =  3.8

     negative rho (up, down):  9.166E-06 0.000E+00

     total cpu time spent up to now is       23.8 secs

     total energy              =     -54.86848808 Ry
     estimated scf accuracy    <       0.00001861 Ry

     iteration #  2     ecut=    60.00 Ry     beta= 0.70
     Davidson diagonalization with overlap
     ethr =  1.16E-07,  avg # of iterations =  2.0

     negative rho (up, down):  9.161E-06 0.000E+00

     total cpu time spent up to now is       24.5 secs

     total energy              =     -54.86849090 Ry
     estimated scf accuracy    <       0.00000022 Ry

     iteration #  3     ecut=    60.00 Ry     beta= 0.70
     Davidson diagonalization with overlap
     ethr =  1.36E-09,  avg # of iterations =  5.9

     negative rho (up, down):  9.160E-06 0.000E+00

     total cpu time spent up to now is       25.5 secs

     total energy              =     -54.86849120 Ry
     estimated scf accuracy    <       0.00000005 Ry

     iteration #  4     ecut=    60.00 Ry     beta= 0.70
     Davidson diagonalization with overlap
     ethr =  3.34E-10,  avg # of iterations =  3.5

     negative rho (up, down):  9.159E-06 0.000E+00

     total cpu time spent up to now is       26.2 secs

     total energy              =     -54.86849122 Ry
     estimated scf accuracy    <       0.00000001 Ry

     iteration #  5     ecut=    60.00 Ry     beta= 0.70
     Davidson diagonalization with overlap
     ethr =  9.07E-11,  avg # of iterations =  2.4

     negative rho (up, down):  9.159E-06 0.000E+00

     total cpu time spent up to now is       26.8 secs

     total energy              =     -54.86849122 Ry
     estimated scf accuracy    <          3.4E-09 Ry

     iteration #  6     ecut=    60.00 Ry     beta= 0.70
     Davidson diagonalization with overlap
     ethr =  2.14E-11,  avg # of iterations =  4.1

     negative rho (up, down):  9.159E-06 0.000E+00

     total cpu time spent up to now is       27.6 secs

     total energy              =     -54.86849122 Ry
     estimated scf accuracy    <          3.3E-10 Ry

     iteration #  7     ecut=    60.00 Ry     beta= 0.70
     Davidson diagonalization with overlap
     ethr =  2.08E-12,  avg # of iterations =  4.0

     negative rho (up, down):  9.159E-06 0.000E+00

     total cpu time spent up to now is       28.4 secs

     End of self-consistent calculation

          k = 0.0000 0.0000 0.0000 ( 11547 PWs)   bands (ev):

   -21.6765 -18.6733 -12.9704  -9.2704  -8.0965  -5.5298  -5.3769  -5.0176

          k = 0.0000 0.1250 0.0000 ( 11559 PWs)   bands (ev):

   -21.6025 -18.6234 -12.9104  -9.1714  -8.3924  -5.6949  -5.6696  -4.9455

          k = 0.0000 0.2499 0.0000 ( 11537 PWs)   bands (ev):

   -21.3824 -18.4835 -12.7321  -9.1540  -8.8759  -6.5225  -6.0771  -4.7406

          k = 0.0000 0.3749 0.0000 ( 11550 PWs)   bands (ev):

   -21.0236 -18.2880 -12.4443 -10.1119  -8.3923  -7.6307  -6.6996  -4.4466

          k = 0.0000 0.4998 0.0000 ( 11538 PWs)   bands (ev):

   -20.5396 -18.1072 -12.0889 -10.9677  -8.8224  -7.7360  -7.4685  -4.1673

          k = 0.0000 0.6248 0.0000 ( 11594 PWs)   bands (ev):

   -19.9567 -18.0572 -11.9700 -11.1917  -9.9652  -8.3093  -6.9359  -4.0983

          k = 0.0000 0.7497 0.0000 ( 11590 PWs)   bands (ev):

   -19.3208 -18.2554 -12.0234 -10.9535 -10.6747  -9.1575  -6.0433  -4.4384

          k = 0.0000-0.8747 0.0000 ( 11648 PWs)   bands (ev):

   -18.7132 -18.7132 -11.6795 -11.6795  -9.9614  -9.9614  -5.1553  -5.1553

          k = 0.0714 0.0000 0.0000 ( 11553 PWs)   bands (ev):

   -21.6524 -18.7441 -12.8588  -9.2379  -8.0705  -5.6365  -5.4251  -5.1307

          k = 0.0714 0.1250 0.0000 ( 11568 PWs)   bands (ev):

   -21.5785 -18.6932 -12.8010  -9.1390  -8.3664  -5.8485  -5.6622  -5.0572

          k = 0.0714 0.2499 0.0000 ( 11552 PWs)   bands (ev):

   -21.3589 -18.5500 -12.6307  -9.1257  -8.8440  -6.6337  -6.0893  -4.8481

          k = 0.0714 0.3749 0.0000 ( 11553 PWs)   bands (ev):

   -21.0007 -18.3476 -12.3626 -10.0741  -8.3611  -7.7380  -6.6852  -4.5454

          k = 0.0714 0.4998 0.0000 ( 11562 PWs)   bands (ev):

   -20.5181 -18.1552 -12.0697 -10.8848  -8.9305  -7.7064  -7.4215  -4.2487

          k = 0.0714 0.6248 0.0000 ( 11604 PWs)   bands (ev):

   -19.9377 -18.0872 -12.0641 -11.0201 -10.0743  -8.2326  -6.9092  -4.1485

          k = 0.0714 0.7497 0.0000 ( 11614 PWs)   bands (ev):

   -19.3065 -18.2655 -12.1255 -11.0623 -10.5250  -9.0547  -6.0225  -4.4530

          k = 0.0714-0.8747 0.0000 ( 11640 PWs)   bands (ev):

   -18.7078 -18.7078 -11.7857 -11.7857  -9.8354  -9.8353  -5.1459  -5.1459

          k = 0.1429 0.0000 0.0000 ( 11559 PWs)   bands (ev):

   -21.5804 -18.9398 -12.5412  -9.1409  -7.9940  -5.9441  -5.5629  -5.4346

          k = 0.1429 0.1250 0.0000 ( 11570 PWs)   bands (ev):

   -21.5068 -18.8863 -12.4898  -9.0422  -8.2885  -6.1609  -5.7728  -5.3582

          k = 0.1429 0.2499 0.0000 ( 11556 PWs)   bands (ev):

   -21.2883 -18.7343 -12.3418  -9.0407  -8.7484  -6.9122  -6.1724  -5.1393

          k = 0.1429 0.3749 0.0000 ( 11550 PWs)   bands (ev):

   -20.9323 -18.5144 -12.1315  -9.9598  -8.2681  -8.0072  -6.6934  -4.8147

          k = 0.1429 0.4998 0.0000 ( 11578 PWs)   bands (ev):

   -20.4538 -18.2909 -12.0080 -10.6485  -9.1998  -7.6180  -7.3395  -4.4736

          k = 0.1429 0.6248 0.0000 ( 11589 PWs)   bands (ev):

   -19.8810 -18.1744 -12.2140 -10.6420 -10.3426  -8.0654  -6.8294  -4.2924

          k = 0.1429 0.7497 0.0000 ( 11591 PWs)   bands (ev):

   -19.2640 -18.2958 -12.3352 -11.3240 -10.1736  -8.8145  -5.9599  -4.4977

          k = 0.1429-0.8747 0.0000 ( 11590 PWs)   bands (ev):

   -18.6923 -18.6923 -12.0293 -12.0293  -9.5347  -9.5347  -5.1194  -5.1194

          k = 0.2143 0.0000 0.0000 ( 11554 PWs)   bands (ev):

   -21.4611 -19.2220 -12.0583  -8.9797  -7.8680  -6.4218  -5.8581  -5.7752

          k = 0.2143 0.1250 0.0000 ( 11552 PWs)   bands (ev):

   -21.3881 -19.1651 -12.0163  -8.8816  -8.1600  -6.6101  -5.9837  -5.7782

          k = 0.2143 0.2499 0.0000 ( 11552 PWs)   bands (ev):

   -21.1714 -19.0022 -11.9037  -8.8998  -8.5900  -7.2949  -6.3671  -5.5468

          k = 0.2143 0.3749 0.0000 ( 11557 PWs)   bands (ev):

   -20.8192 -18.7598 -11.7881  -9.7661  -8.3631  -8.1139  -6.7943  -5.1956

          k = 0.2143 0.4998 0.0000 ( 11582 PWs)   bands (ev):

   -20.3479 -18.4952 -11.8988 -10.2890  -9.5470  -7.4718  -7.3119  -4.7995

          k = 0.2143 0.6248 0.0000 ( 11587 PWs)   bands (ev):

   -19.7879 -18.3117 -12.3125 -10.6806 -10.1802  -7.9090  -6.6979  -4.5143

          k = 0.2143 0.7497 0.0000 ( 11607 PWs)   bands (ev):

   -19.1956 -18.3476 -12.5391 -11.6424  -9.7435  -8.5458  -5.8587  -4.5748

          k = 0.2143-0.8747 0.0000 ( 11596 PWs)   bands (ev):

   -18.6699 -18.6699 -12.3061 -12.3061  -9.1739  -9.1738  -5.0804  -5.0804

          k = 0.2857 0.0000 0.0000 ( 11560 PWs)   bands (ev):

   -21.2958 -19.5508 -11.4541  -8.7560  -7.6953  -7.0291  -6.3370  -6.0403

          k = 0.2857 0.1250 0.0000 ( 11557 PWs)   bands (ev):

   -21.2237 -19.4905 -11.4247  -8.6589  -7.9836  -7.1757  -6.2611  -6.2531

          k = 0.2857 0.2499 0.0000 ( 11551 PWs)   bands (ev):

   -21.0097 -19.3165 -11.3601  -8.7035  -8.3702  -7.7522  -6.6651  -6.0095

          k = 0.2857 0.3749 0.0000 ( 11566 PWs)   bands (ev):

   -20.6630 -19.0515 -11.3756  -9.4898  -8.7622  -7.9004  -7.0160  -5.6321

          k = 0.2857 0.4998 0.0000 ( 11606 PWs)   bands (ev):

   -20.2019 -18.7444 -11.7399  -9.9218  -9.8428  -7.3924  -7.2700  -5.1826

          k = 0.2857 0.6248 0.0000 ( 11601 PWs)   bands (ev):

   -19.6608 -18.4879 -12.3335 -11.0339  -9.6842  -7.8319  -6.5180  -4.7916

          k = 0.2857 0.7497 0.0000 ( 11603 PWs)   bands (ev):

   -19.1044 -18.4211 -12.6863 -11.9601  -9.3002  -8.3212  -5.7231  -4.6860

          k = 0.2857-0.8747 0.0000 ( 11600 PWs)   bands (ev):

   -18.6444 -18.6444 -12.5575 -12.5575  -8.8253  -8.8253  -5.0357  -5.0357

          k = 0.3571 0.0000 0.0000 ( 11556 PWs)   bands (ev):

   -21.0866 -19.8948 -10.7653  -8.4719  -7.7262  -7.4798  -6.8263  -6.3368

          k = 0.3571 0.1250 0.0000 ( 11560 PWs)   bands (ev):

   -21.0155 -19.8316 -10.7524  -8.3760  -7.8293  -7.7629  -6.7393  -6.5736

          k = 0.3571 0.2499 0.0000 ( 11546 PWs)   bands (ev):

   -20.8052 -19.6476 -10.7501  -8.4533  -8.2720  -8.0915  -7.0316  -6.4845

          k = 0.3571 0.3749 0.0000 ( 11575 PWs)   bands (ev):

   -20.4660 -19.3619 -10.9329  -9.1814  -9.1325  -7.6301  -7.3524  -6.0835

          k = 0.3571 0.4998 0.0000 ( 11606 PWs)   bands (ev):

   -20.0186 -19.0159 -11.5322 -10.2965  -9.3467  -7.6002  -7.0151  -5.5869

          k = 0.3571 0.6248 0.0000 ( 11601 PWs)   bands (ev):

   -19.5032 -18.6896 -12.2740 -11.3726  -9.1890  -7.8717  -6.2935  -5.1009

          k = 0.3571 0.7497 0.0000 ( 11601 PWs)   bands (ev):

   -18.9952 -18.5154 -12.7568 -12.2459  -8.8877  -8.1885  -5.5595  -4.8298

          k = 0.3571-0.8747 0.0000 ( 11594 PWs)   bands (ev):

   -18.6209 -18.6209 -12.7535 -12.7535  -8.5378  -8.5378  -4.9940  -4.9940

          k = 0.4286 0.0000 0.0000 ( 11542 PWs)   bands (ev):

   -20.8363 -20.2325 -10.0225  -8.4769  -8.1307  -7.2990  -7.2270  -6.6438

          k = 0.4286 0.1250 0.0000 ( 11566 PWs)   bands (ev):

   -20.7667 -20.1668 -10.0300  -8.5421  -8.0365  -7.5029  -7.2091  -6.8962

          k = 0.4286 0.2499 0.0000 ( 11573 PWs)   bands (ev):

   -20.5612 -19.9742 -10.1087  -8.8469  -8.1520  -7.7575  -7.4236  -6.9445

          k = 0.4286 0.3749 0.0000 ( 11576 PWs)   bands (ev):

   -20.2314 -19.6709 -10.4855  -9.6100  -8.7066  -7.7741  -7.3067  -6.5238

          k = 0.4286 0.4998 0.0000 ( 11590 PWs)   bands (ev):

   -19.8018 -19.2914 -11.2787 -10.6543  -8.8372  -7.9284  -6.7120  -5.9872

          k = 0.4286 0.6248 0.0000 ( 11609 PWs)   bands (ev):

   -19.3197 -18.9035 -12.1394 -11.6784  -8.7282  -8.0421  -6.0301  -5.4216

          k = 0.4286 0.7497 0.0000 ( 11614 PWs)   bands (ev):

   -18.8743 -18.6266 -12.7445 -12.4807  -8.5429  -8.1773  -5.3772  -5.0000

          k = 0.4286-0.8747 0.0000 ( 11586 PWs)   bands (ev):

   -18.6043 -18.6043 -12.8775 -12.8775  -8.3482  -8.3482  -4.9642  -4.9642

          k =-0.5000 0.0000 0.0000 ( 11564 PWs)   bands (ev):

   -20.5496 -20.5496  -9.2517  -9.2517  -7.7374  -7.7374  -6.9449  -6.9449

          k =-0.5000 0.1250 0.0000 ( 11558 PWs)   bands (ev):

   -20.4817 -20.4817  -9.2845  -9.2845  -7.6450  -7.6450  -7.2106  -7.2105

          k =-0.5000 0.2499 0.0000 ( 11578 PWs)   bands (ev):

   -20.2820 -20.2820  -9.4655  -9.4655  -7.8048  -7.8048  -7.3727  -7.3727

          k =-0.5000 0.3749 0.0000 ( 11566 PWs)   bands (ev):

   -19.9641 -19.9641 -10.0444 -10.0444  -8.2403  -8.2403  -6.9353  -6.9353

          k =-0.5000 0.4998 0.0000 ( 11590 PWs)   bands (ev):

   -19.5569 -19.5569 -10.9842 -10.9842  -8.3522  -8.3522  -6.3665  -6.3665

          k =-0.5000 0.6248 0.0000 ( 11624 PWs)   bands (ev):

   -19.1171 -19.1170 -11.9377 -11.9377  -8.3354  -8.3354  -5.7360  -5.7360

          k =-0.5000 0.7497 0.0000 ( 11636 PWs)   bands (ev):

   -18.7488 -18.7488 -12.6504 -12.6504  -8.2983  -8.2983  -5.1867  -5.1867

          k =-0.5000-0.8747 0.0000 ( 11592 PWs)   bands (ev):

   -18.5984 -18.5984 -12.9199 -12.9198  -8.2820  -8.2819  -4.9536  -4.9536

     highest occupied level (ev):    -4.0983

!    total energy              =     -54.86849122 Ry
     estimated scf accuracy    <          2.9E-11 Ry

     The total energy is the sum of the following terms:
     one-electron contribution =    -438.47445503 Ry
     hartree contribution      =     222.47184556 Ry
     xc contribution           =     -18.58888572 Ry
     ewald contribution        =     179.72300396 Ry

     convergence has been achieved in   7 iterations

     negative rho (up, down):  9.159E-06 0.000E+00

     Forces acting on atoms (cartesian axes, Ry/au):

     atom    1 type  2   force =    -0.00269863    0.00000000    0.00000000
     atom    2 type  1   force =     0.00269887    0.00000000    0.00000000
     atom    3 type  2   force =    -0.00269746    0.00000000    0.00000000
     atom    4 type  1   force =     0.00269722    0.00000000    0.00000000

     Total force =     0.005396     Total SCF correction =     0.000008

     number of scf cycles    =   2
     number of bfgs steps    =   1

     energy   old            =     -54.8684772711 Ry
     energy   new            =     -54.8684912228 Ry

     CASE: energy  _new < energy  _old

     new trust radius        =       0.0016587356 bohr
     new conv_thr            =            1.4E-11 Ry


ATOMIC_POSITIONS (crystal)
N             0.0003345101        0.0000000000        0.5000000000
B             0.3330239827        0.0000000000        0.5000000000
N             0.5003344999        0.5000000000        0.5000000000
B             0.8330240072        0.5000000000        0.5000000000



     Writing output data file ./wfc-out/pwscf.save/
     NEW-OLD atomic charge density approx. for the potential

     Check: negative core charge=   -0.000004

     negative rho (up, down):  9.163E-06 0.000E+00

     total cpu time spent up to now is       31.8 secs

     Self-consistent Calculation

     iteration #  1     ecut=    60.00 Ry     beta= 0.70
     Davidson diagonalization with overlap
     ethr =  1.00E-06,  avg # of iterations =  3.0

     Threshold (ethr) on eigenvalues was too large:
     Diagonalizing with lowered threshold

     Davidson diagonalization with overlap
     ethr =  1.01E-08,  avg # of iterations =  5.2

     negative rho (up, down):  9.160E-06 0.000E+00

     total cpu time spent up to now is       33.5 secs

     total energy              =     -54.86849968 Ry
     estimated scf accuracy    <       0.00000277 Ry

     iteration #  2     ecut=    60.00 Ry     beta= 0.70
     Davidson diagonalization with overlap
     ethr =  1.73E-08,  avg # of iterations =  2.0

     negative rho (up, down):  9.162E-06 0.000E+00

     total cpu time spent up to now is       34.2 secs

     total energy              =     -54.86850008 Ry
     estimated scf accuracy    <       0.00000003 Ry

     iteration #  3     ecut=    60.00 Ry     beta= 0.70
     Davidson diagonalization with overlap
     ethr =  2.00E-10,  avg # of iterations =  5.2

     negative rho (up, down):  9.163E-06 0.000E+00

     total cpu time spent up to now is       35.1 secs

     total energy              =     -54.86850012 Ry
     estimated scf accuracy    <          5.9E-09 Ry

     iteration #  4     ecut=    60.00 Ry     beta= 0.70
     Davidson diagonalization with overlap
     ethr =  3.67E-11,  avg # of iterations =  3.9

     negative rho (up, down):  9.162E-06 0.000E+00

     total cpu time spent up to now is       35.8 secs

     total energy              =     -54.86850012 Ry
     estimated scf accuracy    <          1.2E-09 Ry

     iteration #  5     ecut=    60.00 Ry     beta= 0.70
     Davidson diagonalization with overlap
     ethr =  7.58E-12,  avg # of iterations =  3.2

     negative rho (up, down):  9.162E-06 0.000E+00

     total cpu time spent up to now is       36.5 secs

     total energy              =     -54.86850012 Ry
     estimated scf accuracy    <          1.9E-10 Ry

     iteration #  6     ecut=    60.00 Ry     beta= 0.70
     Davidson diagonalization with overlap
     ethr =  1.20E-12,  avg # of iterations =  4.8

     negative rho (up, down):  9.162E-06 0.000E+00

     total cpu time spent up to now is       37.4 secs

     total energy              =     -54.86850012 Ry
     estimated scf accuracy    <          6.4E-11 Ry

     iteration #  7     ecut=    60.00 Ry     beta= 0.70
     Davidson diagonalization with overlap
     ethr =  4.01E-13,  avg # of iterations =  2.1

     negative rho (up, down):  9.162E-06 0.000E+00

     total cpu time spent up to now is       38.1 secs

     End of self-consistent calculation

          k = 0.0000 0.0000 0.0000 ( 11547 PWs)   bands (ev):

   -21.6766 -18.6711 -12.9665  -9.2704  -8.1072  -5.5097  -5.3972  -5.0242

          k = 0.0000 0.1250 0.0000 ( 11559 PWs)   bands (ev):

   -21.6026 -18.6213 -12.9066  -9.1714  -8.4026  -5.7125  -5.6516  -4.9519

          k = 0.0000 0.2499 0.0000 ( 11537 PWs)   bands (ev):

   -21.3827 -18.4817 -12.7283  -9.1627  -8.8757  -6.5385  -6.0599  -4.7463

          k = 0.0000 0.3749 0.0000 ( 11550 PWs)   bands (ev):

   -21.0240 -18.2868 -12.4405 -10.1187  -8.3919  -7.6434  -6.6850  -4.4510

          k = 0.0000 0.4998 0.0000 ( 11538 PWs)   bands (ev):

   -20.5403 -18.1068 -12.0857 -10.9720  -8.8320  -7.7351  -7.4566  -4.1695

          k = 0.0000 0.6248 0.0000 ( 11594 PWs)   bands (ev):

   -19.9578 -18.0577 -11.9716 -11.1895  -9.9722  -8.2998  -6.9345  -4.0976

          k = 0.0000 0.7497 0.0000 ( 11590 PWs)   bands (ev):

   -19.3221 -18.2566 -12.0264 -10.9584 -10.6699  -9.1500  -6.0411  -4.4356

          k = 0.0000-0.8747 0.0000 ( 11648 PWs)   bands (ev):

   -18.7147 -18.7147 -11.6832 -11.6832  -9.9553  -9.9553  -5.1525  -5.1525

          k = 0.0714 0.0000 0.0000 ( 11553 PWs)   bands (ev):

   -21.6525 -18.7420 -12.8547  -9.2380  -8.0813  -5.6168  -5.4451  -5.1368

          k = 0.0714 0.1250 0.0000 ( 11568 PWs)   bands (ev):

   -21.5786 -18.6912 -12.7970  -9.1390  -8.3766  -5.8471  -5.6634  -5.0632

          k = 0.0714 0.2499 0.0000 ( 11552 PWs)   bands (ev):

   -21.3591 -18.5483 -12.6267  -9.1344  -8.8438  -6.6456  -6.0763  -4.8534

          k = 0.0714 0.3749 0.0000 ( 11553 PWs)   bands (ev):

   -21.0011 -18.3464 -12.3587 -10.0810  -8.3607  -7.7488  -6.6725  -4.5495

          k = 0.0714 0.4998 0.0000 ( 11562 PWs)   bands (ev):

   -20.5188 -18.1548 -12.0669 -10.8887  -8.9390  -7.7055  -7.4107  -4.2507

          k = 0.0714 0.6248 0.0000 ( 11604 PWs)   bands (ev):

   -19.9387 -18.0877 -12.0656 -11.0180 -10.0806  -8.2238  -6.9077  -4.1476

          k = 0.0714 0.7497 0.0000 ( 11614 PWs)   bands (ev):

   -19.3078 -18.2667 -12.1280 -11.0668 -10.5205  -9.0476  -6.0203  -4.4503

          k = 0.0714-0.8747 0.0000 ( 11640 PWs)   bands (ev):

   -18.7092 -18.7092 -11.7889 -11.7889  -9.8296  -9.8296  -5.1431  -5.1431

          k = 0.1429 0.0000 0.0000 ( 11559 PWs)   bands (ev):

   -21.5804 -18.9379 -12.5368  -9.1410  -8.0050  -5.9256  -5.5823  -5.4397

          k = 0.1429 0.1250 0.0000 ( 11570 PWs)   bands (ev):

   -21.5069 -18.8845 -12.4853  -9.0423  -8.2989  -6.1531  -5.7809  -5.3632

          k = 0.1429 0.2499 0.0000 ( 11556 PWs)   bands (ev):

   -21.2884 -18.7328 -12.3374  -9.0496  -8.7483  -6.9183  -6.1655  -5.1437

          k = 0.1429 0.3749 0.0000 ( 11550 PWs)   bands (ev):

   -20.9327 -18.5134 -12.1276  -9.9664  -8.2677  -8.0150  -6.6838  -4.8181

          k = 0.1429 0.4998 0.0000 ( 11578 PWs)   bands (ev):

   -20.4545 -18.2905 -12.0063 -10.6512  -9.2064  -7.6171  -7.3306  -4.4751

          k = 0.1429 0.6248 0.0000 ( 11589 PWs)   bands (ev):

   -19.8820 -18.1749 -12.2155 -10.6398 -10.3476  -8.0578  -6.8279  -4.2915

          k = 0.1429 0.7497 0.0000 ( 11591 PWs)   bands (ev):

   -19.2653 -18.2970 -12.3373 -11.3276 -10.1694  -8.8082  -5.9577  -4.4949

          k = 0.1429-0.8747 0.0000 ( 11590 PWs)   bands (ev):

   -18.6937 -18.6937 -12.0318 -12.0318  -9.5295  -9.5295  -5.1165  -5.1165

          k = 0.2143 0.0000 0.0000 ( 11554 PWs)   bands (ev):

   -21.4610 -19.2204 -12.0531  -8.9800  -7.8793  -6.4050  -5.8621  -5.7935

          k = 0.2143 0.1250 0.0000 ( 11552 PWs)   bands (ev):

   -21.3880 -19.1635 -12.0112  -8.8818  -8.1707  -6.5993  -5.9955  -5.7820

          k = 0.2143 0.2499 0.0000 ( 11552 PWs)   bands (ev):

   -21.1715 -19.0009 -11.8989  -8.9088  -8.5900  -7.2967  -6.3649  -5.5502

          k = 0.2143 0.3749 0.0000 ( 11557 PWs)   bands (ev):

   -20.8195 -18.7589 -11.7842  -9.7724  -8.3686  -8.1136  -6.7874  -5.1982

          k = 0.2143 0.4998 0.0000 ( 11582 PWs)   bands (ev):

   -20.3485 -18.4949 -11.8982 -10.2903  -9.5521  -7.4710  -7.3045  -4.8006

          k = 0.2143 0.6248 0.0000 ( 11587 PWs)   bands (ev):

   -19.7888 -18.3122 -12.3142 -10.6847 -10.1776  -7.9023  -6.6965  -4.5133

          k = 0.2143 0.7497 0.0000 ( 11607 PWs)   bands (ev):

   -19.1969 -18.3488 -12.5411 -11.6453  -9.7394  -8.5399  -5.8564  -4.5721

          k = 0.2143-0.8747 0.0000 ( 11596 PWs)   bands (ev):

   -18.6713 -18.6713 -12.3083 -12.3083  -9.1689  -9.1689  -5.0774  -5.0774

          k = 0.2857 0.0000 0.0000 ( 11560 PWs)   bands (ev):

   -21.2957 -19.5494 -11.4481  -8.7564  -7.7070  -7.0142  -6.3400  -6.0575

          k = 0.2857 0.1250 0.0000 ( 11557 PWs)   bands (ev):

   -21.2236 -19.4892 -11.4187  -8.6592  -7.9946  -7.1640  -6.2744  -6.2560

          k = 0.2857 0.2499 0.0000 ( 11551 PWs)   bands (ev):

   -21.0097 -19.3155 -11.3546  -8.7126  -8.3704  -7.7507  -6.6668  -6.0120

          k = 0.2857 0.3749 0.0000 ( 11566 PWs)   bands (ev):

   -20.6633 -19.0508 -11.3720  -9.4953  -8.7658  -7.9002  -7.0112  -5.6339

          k = 0.2857 0.4998 0.0000 ( 11606 PWs)   bands (ev):

   -20.2025 -18.7442 -11.7402  -9.9260  -9.8428  -7.3862  -7.2692  -5.1832

          k = 0.2857 0.6248 0.0000 ( 11601 PWs)   bands (ev):

   -19.6617 -18.4884 -12.3354 -11.0374  -9.6811  -7.8257  -6.5166  -4.7905

          k = 0.2857 0.7497 0.0000 ( 11603 PWs)   bands (ev):

   -19.1057 -18.4223 -12.6882 -11.9627  -9.2959  -8.3156  -5.7208  -4.6833

          k = 0.2857-0.8747 0.0000 ( 11600 PWs)   bands (ev):

   -18.6458 -18.6458 -12.5595 -12.5595  -8.8203  -8.8203  -5.0327  -5.0327

          k = 0.3571 0.0000 0.0000 ( 11556 PWs)   bands (ev):

   -21.0863 -19.8937 -10.7582  -8.4724  -7.7132  -7.4921  -6.8285  -6.3528

          k = 0.3571 0.1250 0.0000 ( 11560 PWs)   bands (ev):

   -21.0153 -19.8306 -10.7455  -8.3765  -7.8180  -7.7744  -6.7414  -6.5872

          k = 0.3571 0.2499 0.0000 ( 11546 PWs)   bands (ev):

   -20.8051 -19.6468 -10.7441  -8.4625  -8.2680  -8.0918  -7.0365  -6.4863

          k = 0.3571 0.3749 0.0000 ( 11575 PWs)   bands (ev):

   -20.4661 -19.3614 -10.9300  -9.1836  -9.1368  -7.6300  -7.3495  -6.0848

          k = 0.3571 0.4998 0.0000 ( 11606 PWs)   bands (ev):

   -20.0191 -19.0159 -11.5333 -10.2999  -9.3455  -7.5949  -7.0145  -5.5871

          k = 0.3571 0.6248 0.0000 ( 11601 PWs)   bands (ev):

   -19.5040 -18.6902 -12.2762 -11.3757  -9.1853  -7.8660  -6.2921  -5.0998

          k = 0.3571 0.7497 0.0000 ( 11601 PWs)   bands (ev):

   -18.9965 -18.5165 -12.7588 -12.2483  -8.8832  -8.1830  -5.5572  -4.8271

          k = 0.3571-0.8747 0.0000 ( 11594 PWs)   bands (ev):

   -18.6223 -18.6223 -12.7554 -12.7554  -8.5328  -8.5328  -4.9909  -4.9909

          k = 0.4286 0.0000 0.0000 ( 11542 PWs)   bands (ev):

   -20.8359 -20.2317 -10.0143  -8.4656  -8.1315  -7.3006  -7.2400  -6.6587

          k = 0.4286 0.1250 0.0000 ( 11566 PWs)   bands (ev):

   -20.7663 -20.1660 -10.0220  -8.5317  -8.0372  -7.5149  -7.2106  -6.9094

          k = 0.4286 0.2499 0.0000 ( 11573 PWs)   bands (ev):

   -20.5610 -19.9736 -10.1022  -8.8412  -8.1610  -7.7580  -7.4307  -6.9458

          k = 0.4286 0.3749 0.0000 ( 11576 PWs)   bands (ev):

   -20.2315 -19.6706 -10.4837  -9.6108  -8.7093  -7.7731  -7.3068  -6.5246

          k = 0.4286 0.4998 0.0000 ( 11590 PWs)   bands (ev):

   -19.8022 -19.2915 -11.2805 -10.6571  -8.8348  -7.9241  -6.7115  -5.9872

          k = 0.4286 0.6248 0.0000 ( 11609 PWs)   bands (ev):

   -19.3205 -18.9041 -12.1418 -11.6811  -8.7240  -8.0368  -6.0287  -5.4204

          k = 0.4286 0.7497 0.0000 ( 11614 PWs)   bands (ev):

   -18.8754 -18.6278 -12.7465 -12.4829  -8.5380  -8.1719  -5.3748  -4.9974

          k = 0.4286-0.8747 0.0000 ( 11586 PWs)   bands (ev):

   -18.6057 -18.6057 -12.8794 -12.8794  -8.3430  -8.3430  -4.9610  -4.9610

          k =-0.5000 0.0000 0.0000 ( 11564 PWs)   bands (ev):

   -20.5490 -20.5490  -9.2420  -9.2420  -7.7386  -7.7386  -6.9588  -6.9588

          k =-0.5000 0.1250 0.0000 ( 11558 PWs)   bands (ev):

   -20.4811 -20.4811  -9.2753  -9.2753  -7.6461  -7.6461  -7.2233  -7.2233

          k =-0.5000 0.2499 0.0000 ( 11578 PWs)   bands (ev):

   -20.2816 -20.2816  -9.4591  -9.4591  -7.8132  -7.8132  -7.3735  -7.3735

          k =-0.5000 0.3749 0.0000 ( 11566 PWs)   bands (ev):

   -19.9639 -19.9639 -10.0438 -10.0438  -8.2412  -8.2412  -6.9357  -6.9357

          k =-0.5000 0.4998 0.0000 ( 11590 PWs)   bands (ev):

   -19.5571 -19.5571 -10.9865 -10.9865  -8.3488  -8.3488  -6.3662  -6.3662

          k =-0.5000 0.6248 0.0000 ( 11624 PWs)   bands (ev):

   -19.1178 -19.1178 -11.9402 -11.9402  -8.3307  -8.3307  -5.7347  -5.7347

          k =-0.5000 0.7497 0.0000 ( 11636 PWs)   bands (ev):

   -18.7500 -18.7500 -12.6525 -12.6525  -8.2932  -8.2932  -5.1842  -5.1842

          k =-0.5000-0.8747 0.0000 ( 11592 PWs)   bands (ev):

   -18.5997 -18.5997 -12.9217 -12.9217  -8.2767  -8.2767  -4.9504  -4.9504

     highest occupied level (ev):    -4.0976

!    total energy              =     -54.86850012 Ry
     estimated scf accuracy    <          8.7E-12 Ry

     The total energy is the sum of the following terms:
     one-electron contribution =    -438.47508651 Ry
     hartree contribution      =     222.47217524 Ry
     xc contribution           =     -18.58895111 Ry
     ewald contribution        =     179.72336226 Ry

     convergence has been achieved in   7 iterations

     negative rho (up, down):  9.162E-06 0.000E+00

     Forces acting on atoms (cartesian axes, Ry/au):

     atom    1 type  2   force =     0.00001283    0.00000000    0.00000000
     atom    2 type  1   force =    -0.00001278    0.00000000    0.00000000
     atom    3 type  2   force =     0.00001298    0.00000000    0.00000000
     atom    4 type  1   force =    -0.00001303    0.00000000    0.00000000

     Total force =     0.000026     Total SCF correction =     0.000004
     SCF correction compared to forces is large: reduce conv_thr to get better values

     number of scf cycles    =   3
     number of bfgs steps    =   2

     energy   old            =     -54.8684912228 Ry
     energy   new            =     -54.8685001198 Ry

     CASE: energy  _new < energy  _old

     small trust_radius: resetting bfgs history

     new trust radius        =       0.0000130346 bohr
     new conv_thr            =            1.0E-12 Ry


ATOMIC_POSITIONS (crystal)
N             0.0003360626        0.0000000000        0.5000000000
B             0.3330224367        0.0000000000        0.5000000000
N             0.5003360708        0.5000000000        0.5000000000
B             0.8330224299        0.5000000000        0.5000000000



     Writing output data file ./wfc-out/pwscf.save/
     NEW-OLD atomic charge density approx. for the potential

     Check: negative core charge=   -0.000004

     negative rho (up, down):  9.162E-06 0.000E+00

     total cpu time spent up to now is       41.8 secs

     Self-consistent Calculation

     iteration #  1     ecut=    60.00 Ry     beta= 0.70
     Davidson diagonalization with overlap
     ethr =  1.00E-06,  avg # of iterations =  1.0

     Threshold (ethr) on eigenvalues was too large:
     Diagonalizing with lowered threshold

     Davidson diagonalization with overlap
     ethr =  1.72E-13,  avg # of iterations =  8.4

     negative rho (up, down):  9.162E-06 0.000E+00

     total cpu time spent up to now is       43.6 secs

     total energy              =     -54.86850012 Ry
     estimated scf accuracy    <          1.7E-10 Ry

     iteration #  2     ecut=    60.00 Ry     beta= 0.70
     Davidson diagonalization with overlap
     ethr =  1.09E-12,  avg # of iterations =  2.0

     negative rho (up, down):  9.162E-06 0.000E+00

     total cpu time spent up to now is       44.3 secs

     total energy              =     -54.86850012 Ry
     estimated scf accuracy    <          6.8E-12 Ry

     iteration #  3     ecut=    60.00 Ry     beta= 0.70
     Davidson diagonalization with overlap
     ethr =  1.00E-13,  avg # of iterations =  2.0

     negative rho (up, down):  9.162E-06 0.000E+00

     total cpu time spent up to now is       44.9 secs

     End of self-consistent calculation

          k = 0.0000 0.0000 0.0000 ( 11547 PWs)   bands (ev):

   -21.6766 -18.6711 -12.9665  -9.2704  -8.1071  -5.5098  -5.3971  -5.0241

          k = 0.0000 0.1250 0.0000 ( 11559 PWs)   bands (ev):

   -21.6026 -18.6213 -12.9066  -9.1714  -8.4025  -5.7124  -5.6518  -4.9518

          k = 0.0000 0.2499 0.0000 ( 11537 PWs)   bands (ev):

   -21.3827 -18.4817 -12.7283  -9.1627  -8.8757  -6.5384  -6.0600  -4.7463

          k = 0.0000 0.3749 0.0000 ( 11550 PWs)   bands (ev):

   -21.0240 -18.2868 -12.4405 -10.1187  -8.3919  -7.6433  -6.6851  -4.4509

          k = 0.0000 0.4998 0.0000 ( 11538 PWs)   bands (ev):

   -20.5403 -18.1068 -12.0857 -10.9720  -8.8319  -7.7351  -7.4567  -4.1694

          k = 0.0000 0.6248 0.0000 ( 11594 PWs)   bands (ev):

   -19.9577 -18.0577 -11.9716 -11.1895  -9.9721  -8.2999  -6.9345  -4.0976

          k = 0.0000 0.7497 0.0000 ( 11590 PWs)   bands (ev):

   -19.3221 -18.2566 -12.0264 -10.9584 -10.6699  -9.1500  -6.0412  -4.4357

          k = 0.0000-0.8747 0.0000 ( 11648 PWs)   bands (ev):

   -18.7146 -18.7146 -11.6831 -11.6831  -9.9553  -9.9553  -5.1525  -5.1525

          k = 0.0714 0.0000 0.0000 ( 11553 PWs)   bands (ev):

   -21.6525 -18.7420 -12.8548  -9.2380  -8.0812  -5.6170  -5.4449  -5.1368

          k = 0.0714 0.1250 0.0000 ( 11568 PWs)   bands (ev):

   -21.5786 -18.6912 -12.7970  -9.1390  -8.3765  -5.8471  -5.6634  -5.0631

          k = 0.0714 0.2499 0.0000 ( 11552 PWs)   bands (ev):

   -21.3591 -18.5483 -12.6267  -9.1344  -8.8438  -6.6455  -6.0764  -4.8534

          k = 0.0714 0.3749 0.0000 ( 11553 PWs)   bands (ev):

   -21.0011 -18.3465 -12.3587 -10.0809  -8.3607  -7.7487  -6.6726  -4.5495

          k = 0.0714 0.4998 0.0000 ( 11562 PWs)   bands (ev):

   -20.5188 -18.1547 -12.0669 -10.8886  -8.9389  -7.7055  -7.4108  -4.2507

          k = 0.0714 0.6248 0.0000 ( 11604 PWs)   bands (ev):

   -19.9387 -18.0876 -12.0656 -11.0180 -10.0805  -8.2238  -6.9077  -4.1476

          k = 0.0714 0.7497 0.0000 ( 11614 PWs)   bands (ev):

   -19.3078 -18.2667 -12.1280 -11.0667 -10.5205  -9.0477  -6.0203  -4.4503

          k = 0.0714-0.8747 0.0000 ( 11640 PWs)   bands (ev):

   -18.7092 -18.7092 -11.7888 -11.7888  -9.8297  -9.8297  -5.1431  -5.1431

          k = 0.1429 0.0000 0.0000 ( 11559 PWs)   bands (ev):

   -21.5804 -18.9379 -12.5368  -9.1410  -8.0049  -5.9257  -5.5821  -5.4397

          k = 0.1429 0.1250 0.0000 ( 11570 PWs)   bands (ev):

   -21.5069 -18.8845 -12.4854  -9.0423  -8.2988  -6.1531  -5.7808  -5.3631

          k = 0.1429 0.2499 0.0000 ( 11556 PWs)   bands (ev):

   -21.2884 -18.7328 -12.3375  -9.0495  -8.7483  -6.9183  -6.1655  -5.1437

          k = 0.1429 0.3749 0.0000 ( 11550 PWs)   bands (ev):

   -20.9327 -18.5134 -12.1276  -9.9663  -8.2677  -8.0150  -6.6839  -4.8181

          k = 0.1429 0.4998 0.0000 ( 11578 PWs)   bands (ev):

   -20.4545 -18.2905 -12.0063 -10.6511  -9.2063  -7.6171  -7.3307  -4.4751

          k = 0.1429 0.6248 0.0000 ( 11589 PWs)   bands (ev):

   -19.8820 -18.1748 -12.2155 -10.6398 -10.3476  -8.0579  -6.8279  -4.2915

          k = 0.1429 0.7497 0.0000 ( 11591 PWs)   bands (ev):

   -19.2653 -18.2970 -12.3373 -11.3275 -10.1695  -8.8083  -5.9577  -4.4949

          k = 0.1429-0.8747 0.0000 ( 11590 PWs)   bands (ev):

   -18.6937 -18.6937 -12.0318 -12.0318  -9.5295  -9.5295  -5.1166  -5.1166

          k = 0.2143 0.0000 0.0000 ( 11554 PWs)   bands (ev):

   -21.4610 -19.2204 -12.0532  -8.9800  -7.8792  -6.4051  -5.8621  -5.7933

          k = 0.2143 0.1250 0.0000 ( 11552 PWs)   bands (ev):

   -21.3880 -19.1635 -12.0112  -8.8818  -8.1706  -6.5994  -5.9954  -5.7820

          k = 0.2143 0.2499 0.0000 ( 11552 PWs)   bands (ev):

   -21.1715 -19.0009 -11.8989  -8.9087  -8.5900  -7.2967  -6.3649  -5.5502

          k = 0.2143 0.3749 0.0000 ( 11557 PWs)   bands (ev):

   -20.8195 -18.7590 -11.7842  -9.7723  -8.3685  -8.1136  -6.7874  -5.1981

          k = 0.2143 0.4998 0.0000 ( 11582 PWs)   bands (ev):

   -20.3485 -18.4949 -11.8982 -10.2903  -9.5521  -7.4710  -7.3045  -4.8006

          k = 0.2143 0.6248 0.0000 ( 11587 PWs)   bands (ev):

   -19.7888 -18.3122 -12.3142 -10.6846 -10.1776  -7.9023  -6.6965  -4.5133

          k = 0.2143 0.7497 0.0000 ( 11607 PWs)   bands (ev):

   -19.1969 -18.3487 -12.5410 -11.6453  -9.7394  -8.5400  -5.8565  -4.5721

          k = 0.2143-0.8747 0.0000 ( 11596 PWs)   bands (ev):

   -18.6713 -18.6713 -12.3082 -12.3082  -9.1689  -9.1689  -5.0775  -5.0775

          k = 0.2857 0.0000 0.0000 ( 11560 PWs)   bands (ev):

   -21.2956 -19.5494 -11.4481  -8.7564  -7.7069  -7.0143  -6.3400  -6.0574

          k = 0.2857 0.1250 0.0000 ( 11557 PWs)   bands (ev):

   -21.2236 -19.4892 -11.4188  -8.6591  -7.9945  -7.1641  -6.2742  -6.2560

          k = 0.2857 0.2499 0.0000 ( 11551 PWs)   bands (ev):

   -21.0097 -19.3155 -11.3547  -8.7126  -8.3704  -7.7507  -6.6668  -6.0120

          k = 0.2857 0.3749 0.0000 ( 11566 PWs)   bands (ev):

   -20.6633 -19.0508 -11.3720  -9.4953  -8.7658  -7.9002  -7.0112  -5.6339

          k = 0.2857 0.4998 0.0000 ( 11606 PWs)   bands (ev):

   -20.2025 -18.7442 -11.7402  -9.9259  -9.8428  -7.3862  -7.2692  -5.1832

          k = 0.2857 0.6248 0.0000 ( 11601 PWs)   bands (ev):

   -19.6617 -18.4884 -12.3354 -11.0373  -9.6811  -7.8258  -6.5166  -4.7905

          k = 0.2857 0.7497 0.0000 ( 11603 PWs)   bands (ev):

   -19.1057 -18.4223 -12.6882 -11.9626  -9.2959  -8.3157  -5.7208  -4.6833

          k = 0.2857-0.8747 0.0000 ( 11600 PWs)   bands (ev):

   -18.6458 -18.6458 -12.5595 -12.5595  -8.8203  -8.8203  -5.0327  -5.0327

          k = 0.3571 0.0000 0.0000 ( 11556 PWs)   bands (ev):

   -21.0863 -19.8937 -10.7583  -8.4724  -7.7133  -7.4920  -6.8285  -6.3526

          k = 0.3571 0.1250 0.0000 ( 11560 PWs)   bands (ev):

   -21.0153 -19.8306 -10.7455  -8.3765  -7.8181  -7.7743  -6.7414  -6.5871

          k = 0.3571 0.2499 0.0000 ( 11546 PWs)   bands (ev):

   -20.8051 -19.6468 -10.7442  -8.4624  -8.2680  -8.0918  -7.0364  -6.4863

          k = 0.3571 0.3749 0.0000 ( 11575 PWs)   bands (ev):

   -20.4661 -19.3614 -10.9301  -9.1835  -9.1368  -7.6300  -7.3495  -6.0848

          k = 0.3571 0.4998 0.0000 ( 11606 PWs)   bands (ev):

   -20.0191 -19.0159 -11.5333 -10.2999  -9.3455  -7.5949  -7.0145  -5.5871

          k = 0.3571 0.6248 0.0000 ( 11601 PWs)   bands (ev):

   -19.5040 -18.6902 -12.2761 -11.3756  -9.1853  -7.8660  -6.2922  -5.0998

          k = 0.3571 0.7497 0.0000 ( 11601 PWs)   bands (ev):

   -18.9964 -18.5165 -12.7588 -12.2482  -8.8832  -8.1831  -5.5572  -4.8271

          k = 0.3571-0.8747 0.0000 ( 11594 PWs)   bands (ev):

   -18.6223 -18.6223 -12.7554 -12.7554  -8.5328  -8.5328  -4.9909  -4.9909

          k = 0.4286 0.0000 0.0000 ( 11542 PWs)   bands (ev):

   -20.8359 -20.2317 -10.0143  -8.4657  -8.1315  -7.3006  -7.2399  -6.6586

          k = 0.4286 0.1250 0.0000 ( 11566 PWs)   bands (ev):

   -20.7663 -20.1660 -10.0220  -8.5318  -8.0372  -7.5148  -7.2106  -6.9093

          k = 0.4286 0.2499 0.0000 ( 11573 PWs)   bands (ev):

   -20.5610 -19.9736 -10.1023  -8.8413  -8.1609  -7.7580  -7.4306  -6.9458

          k = 0.4286 0.3749 0.0000 ( 11576 PWs)   bands (ev):

   -20.2315 -19.6706 -10.4837  -9.6108  -8.7093  -7.7731  -7.3068  -6.5246

          k = 0.4286 0.4998 0.0000 ( 11590 PWs)   bands (ev):

   -19.8022 -19.2915 -11.2805 -10.6571  -8.8348  -7.9241  -6.7115  -5.9872

          k = 0.4286 0.6248 0.0000 ( 11609 PWs)   bands (ev):

   -19.3205 -18.9041 -12.1417 -11.6811  -8.7240  -8.0369  -6.0287  -5.4204

          k = 0.4286 0.7497 0.0000 ( 11614 PWs)   bands (ev):

   -18.8754 -18.6277 -12.7465 -12.4829  -8.5381  -8.1720  -5.3748  -4.9974

          k = 0.4286-0.8747 0.0000 ( 11586 PWs)   bands (ev):

   -18.6057 -18.6057 -12.8794 -12.8794  -8.3430  -8.3430  -4.9610  -4.9610

          k =-0.5000 0.0000 0.0000 ( 11564 PWs)   bands (ev):

   -20.5490 -20.5490  -9.2421  -9.2421  -7.7386  -7.7386  -6.9587  -6.9587

          k =-0.5000 0.1250 0.0000 ( 11558 PWs)   bands (ev):

   -20.4811 -20.4811  -9.2754  -9.2754  -7.6461  -7.6461  -7.2232  -7.2232

          k =-0.5000 0.2499 0.0000 ( 11578 PWs)   bands (ev):

   -20.2816 -20.2816  -9.4591  -9.4591  -7.8132  -7.8132  -7.3735  -7.3735

          k =-0.5000 0.3749 0.0000 ( 11566 PWs)   bands (ev):

   -19.9639 -19.9639 -10.0438 -10.0438  -8.2412  -8.2412  -6.9357  -6.9357

          k =-0.5000 0.4998 0.0000 ( 11590 PWs)   bands (ev):

   -19.5571 -19.5571 -10.9865 -10.9865  -8.3488  -8.3488  -6.3662  -6.3662

          k =-0.5000 0.6248 0.0000 ( 11624 PWs)   bands (ev):

   -19.1178 -19.1178 -11.9402 -11.9402  -8.3307  -8.3307  -5.7347  -5.7347

          k =-0.5000 0.7497 0.0000 ( 11636 PWs)   bands (ev):

   -18.7499 -18.7499 -12.6525 -12.6525  -8.2932  -8.2932  -5.1842  -5.1842

          k =-0.5000-0.8747 0.0000 ( 11592 PWs)   bands (ev):

   -18.5997 -18.5997 -12.9217 -12.9217  -8.2768  -8.2768  -4.9505  -4.9505

     highest occupied level (ev):    -4.0976

!    total energy              =     -54.86850012 Ry
     estimated scf accuracy    <          2.7E-13 Ry

     The total energy is the sum of the following terms:
     one-electron contribution =    -438.47507203 Ry
     hartree contribution      =     222.47216123 Ry
     xc contribution           =     -18.58894851 Ry
     ewald contribution        =     179.72335920 Ry

     convergence has been achieved in   3 iterations

     negative rho (up, down):  9.162E-06 0.000E+00

     Forces acting on atoms (cartesian axes, Ry/au):

     atom    1 type  2   force =    -0.00000880    0.00000000    0.00000000
     atom    2 type  1   force =     0.00000883    0.00000000    0.00000000
     atom    3 type  2   force =    -0.00000894    0.00000000    0.00000000
     atom    4 type  1   force =     0.00000891    0.00000000    0.00000000

     Total force =     0.000018     Total SCF correction =     0.000000

     bfgs converged in   4 scf cycles and   3 bfgs steps
     (criteria: energy <  1.0E-06 Ry, force <  1.0E-04 Ry/Bohr)

     End of BFGS Geometry Optimization

     Final energy   =     -54.8685001195 Ry

     File ./wfc-out/pwscf.bfgs deleted, as requested
Begin final coordinates

ATOMIC_POSITIONS (crystal)
N             0.0003360626        0.0000000000        0.5000000000
B             0.3330224367        0.0000000000        0.5000000000
N             0.5003360708        0.5000000000        0.5000000000
B             0.8330224299        0.5000000000        0.5000000000
End final coordinates



     Writing output data file ./wfc-out/pwscf.save/
 
     init_run     :      0.78s CPU      1.00s WALL (       1 calls)
     electrons    :     24.74s CPU     36.05s WALL (       4 calls)
     update_pot   :      0.60s CPU      0.61s WALL (       3 calls)
     forces       :      0.72s CPU      0.72s WALL (       4 calls)

     Called by init_run:
     wfcinit      :      0.30s CPU      0.41s WALL (       1 calls)
     potinit      :      0.07s CPU      0.10s WALL (       1 calls)
     hinit0       :      0.16s CPU      0.21s WALL (       1 calls)

     Called by electrons:
     c_bands      :     20.47s CPU     28.48s WALL (      45 calls)
     sum_band     :      3.28s CPU      3.42s WALL (      45 calls)
     v_of_rho     :      0.54s CPU      0.57s WALL (      46 calls)
     newd         :      0.42s CPU      0.45s WALL (      46 calls)
     mix_rho      :      0.08s CPU      0.09s WALL (      45 calls)

     Called by c_bands:
     init_us_2    :      0.64s CPU      0.69s WALL (    6080 calls)
     cegterg      :     18.69s CPU     19.62s WALL (    2880 calls)

     Called by *egterg:
     cdiaghg      :      1.08s CPU      1.18s WALL (   11642 calls)
     h_psi        :     15.74s CPU     16.56s WALL (   12090 calls)
     s_psi        :      0.27s CPU      0.29s WALL (   12090 calls)
     g_psi        :      0.09s CPU      0.10s WALL (    9146 calls)

     Called by h_psi:
     h_psi:calbec :      0.73s CPU      0.81s WALL (   12090 calls)
     vloc_psi     :     14.58s CPU     15.30s WALL (   12090 calls)
     add_vuspsi   :      0.30s CPU      0.32s WALL (   12090 calls)

     General routines
     calbec       :      0.95s CPU      1.03s WALL (   15994 calls)
     fft          :      0.44s CPU      0.50s WALL (     640 calls)
     ffts         :      0.02s CPU      0.04s WALL (      91 calls)
     fftw         :     15.28s CPU     16.03s WALL (  172308 calls)
     interpolate  :      0.04s CPU      0.06s WALL (      46 calls)
 
     Parallel routines
     fft_scatt_xy :      1.90s CPU      2.00s WALL (  173039 calls)
     fft_scatt_yz :      6.47s CPU      6.79s WALL (  173039 calls)
 
     PWSCF        :     27.27s CPU   1m25.57s WALL

 
   This run was terminated on:  17:29:17  12Dec2022            

=------------------------------------------------------------------------------=
   JOB DONE.
=------------------------------------------------------------------------------=
