 running on  192 total cores
 distrk:  each k-point on  192 cores,    1 groups
 distr:  one band on   24 cores,    8 groups
 using from now: INCAR     
 vasp.5.4.4.18Apr17-6-g9f103f2a35 (build Oct 01 2024 10:11:53) complex          
  
 POSCAR found type information on POSCAR  Se Sn
 POSCAR found :  2 types and       4 ions
 scaLAPACK will be used
 WARNING: PSMAXN for non-local potential too small
 LDA part: xc-table for Pade appr. of Perdew
 found WAVECAR, reading the header
  number of k-points has changed, file:    41 present:    40
  trying to continue reading WAVECAR, but it might fail
 WARNING: stress and forces are not correct
 POSCAR, INCAR and KPOINTS ok, starting setup
 FFT: planning ...
 reading WAVECAR
 the WAVECAR file was read successfully
 charge-density read from file: unknown                                 
 entering main loop
       N       E                     dE             d eps       ncg     rms          rms(c)
DAV:   1    -0.121140095611E+02   -0.12114E+02   -0.60182E+02  1776   0.681E+01
DAV:   2    -0.162129738194E+02   -0.40990E+01   -0.40662E+01  1576   0.238E+01
DAV:   3    -0.162656269593E+02   -0.52653E-01   -0.52622E-01  1728   0.324E+00
DAV:   4    -0.162662728641E+02   -0.64590E-03   -0.64588E-03  1584   0.360E-01
DAV:   5    -0.162662903691E+02   -0.17505E-04   -0.17504E-04  1616   0.572E-02
DAV:   6    -0.162662908712E+02   -0.50213E-06   -0.50208E-06  1440   0.883E-03
   1 F= -.16266291E+02 E0= -.16266291E+02  d E =0.000000E+00
 writing wavefunctions
