 vasp.5.4.4.18Apr17-6-g9f103f2a35 (build Oct 01 2024 10:11:53) complex          
  
 executed on              Shaheen date 2025.02.19  15:18:42
 running on  192 total cores
 distrk:  each k-point on  192 cores,    1 groups
 distr:  one band on NCORES_PER_BAND=  24 cores,    8 groups


--------------------------------------------------------------------------------------------------------


 INCAR:
 POTCAR:    PAW_PBE Mo 08Apr2002                  
 POTCAR:    PAW_PBE S 06Sep2000                   
 POTCAR:    PAW_PBE Te 08Apr2002                  
 POTCAR:    PAW_PBE Mo 08Apr2002                  
   VRHFIN =Mo: 4p5s4d                                                           
   LEXCH  = PE                                                                  
   EATOM  =   217.5176 eV,   15.9871 Ry                                         
                                                                                
   TITEL  = PAW_PBE Mo 08Apr2002                                                
   LULTRA =        F    use ultrasoft PP ?                                      
   IUNSCR =        1    unscreen: 0-lin 1-nonlin 2-no                           
   RPACOR =    2.200    partial core radius                                     
   POMASS =   95.940; ZVAL   =    6.000    mass and valenz                      
   RCORE  =    2.750    outmost cutoff radius                                   
   RWIGS  =    2.750; RWIGS  =    1.455    wigner-seitz radius (au A)           
   ENMAX  =  224.584; ENMIN  =  168.438 eV                                      
   RCLOC  =    2.111    cutoff for local pot                                    
   LCOR   =        T    correct aug charges                                     
   LPAW   =        T    paw PP                                                  
   EAUG   =  345.278                                                            
   DEXC   =    0.000                                                            
   RMAX   =    2.821    core radius for proj-oper                               
   RAUG   =    1.300    factor for augmentation sphere                          
   RDEP   =    2.815    radius for radial grids                                 
   RDEPT  =    2.211    core radius for aug-charge                              
                                                                                
   Atomic configuration                                                         
   12 entries                                                                   
     n  l   j            E        occ.                                          
     1  0  0.50    -19819.0341   2.0000                                         
     2  0  0.50     -2799.0127   2.0000                                         
     2  1  1.50     -2502.0276   6.0000                                         
     3  0  0.50      -476.4448   2.0000                                         
     3  1  1.50      -379.1496   6.0000                                         
     3  2  2.50      -220.9367  10.0000                                         
     4  0  0.50       -64.3378   2.0000                                         
     4  1  1.50       -38.4773   6.0000                                         
     4  2  2.50        -3.7535   5.0000                                         
     5  0  0.50        -4.0862   1.0000                                         
     5  1  0.50        -2.7701   0.0000                                         
     4  3  2.50        -1.3606   0.0000                                         
   Description                                                                  
     l       E           TYP  RCUT    TYP  RCUT                                 
     2     -3.7534765     23  2.500                                             
     2     -5.1140591     23  2.500                                             
     0     -4.0861560     23  2.600                                             
     0     13.6058260     23  2.600                                             
     1      5.4423304     23  2.750                                             
     1     27.2116520     23  2.750                                             
  local pseudopotential read in
  partial core-charges read in
  partial kinetic energy density read in
  atomic valenz-charges read in
  non local Contribution for L=           2  read in
    real space projection operators read in
  non local Contribution for L=           2  read in
    real space projection operators read in
  non local Contribution for L=           0  read in
    real space projection operators read in
  non local Contribution for L=           0  read in
    real space projection operators read in
  non local Contribution for L=           1  read in
    real space projection operators read in
  non local Contribution for L=           1  read in
    real space projection operators read in
    PAW grid and wavefunctions read in
 
   number of l-projection  operators is LMAX  =           6
   number of lm-projection operators is LMMAX =          18
 
 POTCAR:    PAW_PBE S 06Sep2000                   
   VRHFIN =S : s2p4                                                             
   LEXCH  = PE                                                                  
   EATOM  =   276.8230 eV,   20.3459 Ry                                         
                                                                                
   TITEL  = PAW_PBE S 06Sep2000                                                 
   LULTRA =        F    use ultrasoft PP ?                                      
   IUNSCR =        1    unscreen: 0-lin 1-nonlin 2-no                           
   RPACOR =    1.500    partial core radius                                     
   POMASS =   32.066; ZVAL   =    6.000    mass and valenz                      
   RCORE  =    1.900    outmost cutoff radius                                   
   RWIGS  =    2.200; RWIGS  =    1.164    wigner-seitz radius (au A)           
   ENMAX  =  258.689; ENMIN  =  194.016 eV                                      
   ICORE  =        2    local potential                                         
   LCOR   =        T    correct aug charges                                     
   LPAW   =        T    paw PP                                                  
   EAUG   =  335.092                                                            
   DEXC   =    0.000                                                            
   RMAX   =    1.942    core radius for proj-oper                               
   RAUG   =    1.300    factor for augmentation sphere                          
   RDEP   =    1.954    radius for radial grids                                 
   RDEPT  =    1.744    core radius for aug-charge                              
                                                                                
   Atomic configuration                                                         
    6 entries                                                                   
     n  l   j            E        occ.                                          
     1  0  0.50     -2405.8406   2.0000                                         
     2  0  0.50      -211.7007   2.0000                                         
     2  1  1.50      -156.4958   6.0000                                         
     3  0  0.50       -17.2562   2.0000                                         
     3  1  0.50        -7.0085   4.0000                                         
     3  2  1.50        -6.8029   0.0000                                         
   Description                                                                  
     l       E           TYP  RCUT    TYP  RCUT                                 
     0    -17.2561641     23  1.900                                             
     0    -15.8743224     23  1.900                                             
     1     -7.0085400     23  1.900                                             
     1     -2.7779785     23  1.900                                             
     2     -6.8029130     23  1.900                                             
  local pseudopotential read in
  partial core-charges read in
  partial kinetic energy density read in
  atomic valenz-charges read in
  non local Contribution for L=           0  read in
    real space projection operators read in
  non local Contribution for L=           0  read in
    real space projection operators read in
  non local Contribution for L=           1  read in
    real space projection operators read in
  non local Contribution for L=           1  read in
    real space projection operators read in
    PAW grid and wavefunctions read in
 
   number of l-projection  operators is LMAX  =           4
   number of lm-projection operators is LMMAX =           8
 
 POTCAR:    PAW_PBE Te 08Apr2002                  
   VRHFIN =Te: s2p4                                                             
   LEXCH  = PE                                                                  
   EATOM  =   223.2721 eV,   16.4100 Ry                                         
                                                                                
   TITEL  = PAW_PBE Te 08Apr2002                                                
   LULTRA =        F    use ultrasoft PP ?                                      
   IUNSCR =        1    unscreen: 0-lin 1-nonlin 2-no                           
   RPACOR =    2.200    partial core radius                                     
   POMASS =  127.600; ZVAL   =    6.000    mass and valenz                      
   RCORE  =    2.300    outmost cutoff radius                                   
   RWIGS  =    2.900; RWIGS  =    1.535    wigner-seitz radius (au A)           
   ENMAX  =  174.982; ENMIN  =  131.236 eV                                      
   ICORE  =        3    local potential                                         
   LCOR   =        T    correct aug charges                                     
   LPAW   =        T    paw PP                                                  
   EAUG   =  368.792                                                            
   DEXC   =    0.000                                                            
   RMAX   =    2.345    core radius for proj-oper                               
   RAUG   =    1.300    factor for augmentation sphere                          
   RDEP   =    2.397    radius for radial grids                                 
   RDEPT  =    2.174    core radius for aug-charge                              
                                                                                
   Atomic configuration                                                         
   13 entries                                                                   
     n  l   j            E        occ.                                          
     1  0  0.50    -31621.2075   2.0000                                         
     2  0  0.50     -4848.7941   2.0000                                         
     2  1  1.50     -4352.1960   6.0000                                         
     3  0  0.50      -964.9612   2.0000                                         
     3  1  1.50      -803.6179   6.0000                                         
     3  2  2.50      -559.8710  10.0000                                         
     4  0  0.50      -164.3522   2.0000                                         
     4  1  1.50      -114.3756   6.0000                                         
     4  2  2.50       -41.6483  10.0000                                         
     5  0  0.50       -15.1072   2.0000                                         
     5  1  0.50        -5.9526   4.0000                                         
     5  2  1.50        -5.4423   0.0000                                         
     4  3  2.50        -5.4423   0.0000                                         
   Description                                                                  
     l       E           TYP  RCUT    TYP  RCUT                                 
     0    -15.1072389     23  2.300                                             
     0    -16.4678215     23  2.300                                             
     1     -5.9526306     23  2.300                                             
     1     -2.4873968     23  2.300                                             
     2     -5.4423304     23  2.300                                             
     3     -1.3605826     23  2.300                                             
  local pseudopotential read in
  partial core-charges read in
  partial kinetic energy density read in
  atomic valenz-charges read in
  non local Contribution for L=           0  read in
    real space projection operators read in
  non local Contribution for L=           0  read in
    real space projection operators read in
  non local Contribution for L=           1  read in
    real space projection operators read in
  non local Contribution for L=           1  read in
    real space projection operators read in
  non local Contribution for L=           2  read in
    real space projection operators read in
    PAW grid and wavefunctions read in
 
   number of l-projection  operators is LMAX  =           5
   number of lm-projection operators is LMMAX =          13
 
  PAW_PBE Mo 08Apr2002                  :
 energy of atom  1       EATOM= -217.5176
 kinetic energy error for atom=    0.0005 (will be added to EATOM!!)
  PAW_PBE S 06Sep2000                   :
 energy of atom  2       EATOM= -276.8230
 kinetic energy error for atom=    0.0009 (will be added to EATOM!!)
  PAW_PBE Te 08Apr2002                  :
 energy of atom  3       EATOM= -223.2721
 kinetic energy error for atom=    0.0004 (will be added to EATOM!!)
 
 
 POSCAR: Generated by VASPKIT code               
  positions in direct lattice
  velocities in cartesian coordinates
 exchange correlation table for  LEXCH =        8
   RHO(1)=    0.500       N(1)  =     2000
   RHO(2)=  100.500       N(2)  =     4000
 


--------------------------------------------------------------------------------------------------------


 ion  position               nearest neighbor table
   1  0.500  0.167  0.507-   4 2.44   4 2.44   3 2.44   6 2.72   6 2.72   5 2.72   2 3.37   2 3.37
                             2 3.37   2 3.37
   2  0.000  0.667  0.507-   3 2.44   3 2.44   4 2.44   5 2.72   5 2.72   6 2.72   1 3.37   1 3.37
                             1 3.37   1 3.37
   3  0.500  0.833  0.580-   2 2.44   2 2.44   1 2.44
   4  0.000  0.333  0.580-   1 2.44   1 2.44   2 2.44
   5  0.500  0.833  0.413-   2 2.72   2 2.72   1 2.72   6 3.37   6 3.37   6 3.37   6 3.37
   6  0.000  0.333  0.413-   1 2.72   1 2.72   2 2.72   5 3.37   5 3.37   5 3.37   5 3.37
 

IMPORTANT INFORMATION: All symmetrisations will be switched off!
NOSYMM: (Re-)initialisation of all symmetry stuff for point group C_1.

 
 
 KPOINTS: K-Spacing Value to Generate K-Mesh: 0.01

Automatic generation of k-mesh.
Space group operators:
 irot       det(A)        alpha          n_x          n_y          n_z        tau_x        tau_y        tau_z
    1     1.000000     0.000001     1.000000     0.000000     0.000000     0.000000     0.000000     0.000000
 
 Subroutine IBZKPT returns following result:
 ===========================================
 
 Found    105 irreducible k-points:
 
 Following reciprocal coordinates:
            Coordinates               Weight
  0.000000  0.000000  0.000000      1.000000
  0.052632  0.000000  0.000000      2.000000
  0.105263  0.000000  0.000000      2.000000
  0.157895  0.000000  0.000000      2.000000
  0.210526  0.000000  0.000000      2.000000
  0.263158  0.000000  0.000000      2.000000
  0.315789  0.000000  0.000000      2.000000
  0.368421  0.000000  0.000000      2.000000
  0.421053  0.000000  0.000000      2.000000
  0.473684  0.000000  0.000000      2.000000
  0.000000  0.090909  0.000000      2.000000
  0.052632  0.090909  0.000000      2.000000
  0.105263  0.090909  0.000000      2.000000
  0.157895  0.090909  0.000000      2.000000
  0.210526  0.090909  0.000000      2.000000
  0.263158  0.090909  0.000000      2.000000
  0.315789  0.090909  0.000000      2.000000
  0.368421  0.090909  0.000000      2.000000
  0.421053  0.090909  0.000000      2.000000
  0.473684  0.090909  0.000000      2.000000
 -0.473684  0.090909  0.000000      2.000000
 -0.421053  0.090909  0.000000      2.000000
 -0.368421  0.090909  0.000000      2.000000
 -0.315789  0.090909  0.000000      2.000000
 -0.263158  0.090909  0.000000      2.000000
 -0.210526  0.090909  0.000000      2.000000
 -0.157895  0.090909  0.000000      2.000000
 -0.105263  0.090909  0.000000      2.000000
 -0.052632  0.090909  0.000000      2.000000
  0.000000  0.181818  0.000000      2.000000
  0.052632  0.181818  0.000000      2.000000
  0.105263  0.181818  0.000000      2.000000
  0.157895  0.181818  0.000000      2.000000
  0.210526  0.181818  0.000000      2.000000
  0.263158  0.181818  0.000000      2.000000
  0.315789  0.181818  0.000000      2.000000
  0.368421  0.181818  0.000000      2.000000
  0.421053  0.181818  0.000000      2.000000
  0.473684  0.181818  0.000000      2.000000
 -0.473684  0.181818  0.000000      2.000000
 -0.421053  0.181818  0.000000      2.000000
 -0.368421  0.181818  0.000000      2.000000
 -0.315789  0.181818  0.000000      2.000000
 -0.263158  0.181818  0.000000      2.000000
 -0.210526  0.181818  0.000000      2.000000
 -0.157895  0.181818  0.000000      2.000000
 -0.105263  0.181818  0.000000      2.000000
 -0.052632  0.181818  0.000000      2.000000
  0.000000  0.272727  0.000000      2.000000
  0.052632  0.272727  0.000000      2.000000
  0.105263  0.272727  0.000000      2.000000
  0.157895  0.272727  0.000000      2.000000
  0.210526  0.272727  0.000000      2.000000
  0.263158  0.272727  0.000000      2.000000
  0.315789  0.272727  0.000000      2.000000
  0.368421  0.272727  0.000000      2.000000
  0.421053  0.272727  0.000000      2.000000
  0.473684  0.272727  0.000000      2.000000
 -0.473684  0.272727  0.000000      2.000000
 -0.421053  0.272727  0.000000      2.000000
 -0.368421  0.272727  0.000000      2.000000
 -0.315789  0.272727  0.000000      2.000000
 -0.263158  0.272727  0.000000      2.000000
 -0.210526  0.272727  0.000000      2.000000
 -0.157895  0.272727  0.000000      2.000000
 -0.105263  0.272727  0.000000      2.000000
 -0.052632  0.272727  0.000000      2.000000
  0.000000  0.363636  0.000000      2.000000
  0.052632  0.363636  0.000000      2.000000
  0.105263  0.363636  0.000000      2.000000
  0.157895  0.363636  0.000000      2.000000
  0.210526  0.363636  0.000000      2.000000
  0.263158  0.363636  0.000000      2.000000
  0.315789  0.363636  0.000000      2.000000
  0.368421  0.363636  0.000000      2.000000
  0.421053  0.363636  0.000000      2.000000
  0.473684  0.363636  0.000000      2.000000
 -0.473684  0.363636  0.000000      2.000000
 -0.421053  0.363636  0.000000      2.000000
 -0.368421  0.363636  0.000000      2.000000
 -0.315789  0.363636  0.000000      2.000000
 -0.263158  0.363636  0.000000      2.000000
 -0.210526  0.363636  0.000000      2.000000
 -0.157895  0.363636  0.000000      2.000000
 -0.105263  0.363636  0.000000      2.000000
 -0.052632  0.363636  0.000000      2.000000
  0.000000  0.454545  0.000000      2.000000
  0.052632  0.454545  0.000000      2.000000
  0.105263  0.454545  0.000000      2.000000
  0.157895  0.454545  0.000000      2.000000
  0.210526  0.454545  0.000000      2.000000
  0.263158  0.454545  0.000000      2.000000
  0.315789  0.454545  0.000000      2.000000
  0.368421  0.454545  0.000000      2.000000
  0.421053  0.454545  0.000000      2.000000
  0.473684  0.454545  0.000000      2.000000
 -0.473684  0.454545  0.000000      2.000000
 -0.421053  0.454545  0.000000      2.000000
 -0.368421  0.454545  0.000000      2.000000
 -0.315789  0.454545  0.000000      2.000000
 -0.263158  0.454545  0.000000      2.000000
 -0.210526  0.454545  0.000000      2.000000
 -0.157895  0.454545  0.000000      2.000000
 -0.105263  0.454545  0.000000      2.000000
 -0.052632  0.454545  0.000000      2.000000
 
 Following cartesian coordinates:
            Coordinates               Weight
  0.000000  0.000000  0.000000      1.000000
  0.015647  0.000000  0.000000      2.000000
  0.031295  0.000000  0.000000      2.000000
  0.046942  0.000000  0.000000      2.000000
  0.062590  0.000000  0.000000      2.000000
  0.078237  0.000000  0.000000      2.000000
  0.093884  0.000000  0.000000      2.000000
  0.109532  0.000000  0.000000      2.000000
  0.125179  0.000000  0.000000      2.000000
  0.140827  0.000000  0.000000      2.000000
  0.000000  0.015558  0.000000      2.000000
  0.015647  0.015558  0.000000      2.000000
  0.031295  0.015558  0.000000      2.000000
  0.046942  0.015558  0.000000      2.000000
  0.062590  0.015558  0.000000      2.000000
  0.078237  0.015558  0.000000      2.000000
  0.093884  0.015558  0.000000      2.000000
  0.109532  0.015558  0.000000      2.000000
  0.125179  0.015558  0.000000      2.000000
  0.140827  0.015558  0.000000      2.000000
 -0.140827  0.015558  0.000000      2.000000
 -0.125179  0.015558  0.000000      2.000000
 -0.109532  0.015558  0.000000      2.000000
 -0.093884  0.015558  0.000000      2.000000
 -0.078237  0.015558  0.000000      2.000000
 -0.062590  0.015558  0.000000      2.000000
 -0.046942  0.015558  0.000000      2.000000
 -0.031295  0.015558  0.000000      2.000000
 -0.015647  0.015558  0.000000      2.000000
  0.000000  0.031115  0.000000      2.000000
  0.015647  0.031115  0.000000      2.000000
  0.031295  0.031115  0.000000      2.000000
  0.046942  0.031115  0.000000      2.000000
  0.062590  0.031115  0.000000      2.000000
  0.078237  0.031115  0.000000      2.000000
  0.093884  0.031115  0.000000      2.000000
  0.109532  0.031115  0.000000      2.000000
  0.125179  0.031115  0.000000      2.000000
  0.140827  0.031115  0.000000      2.000000
 -0.140827  0.031115  0.000000      2.000000
 -0.125179  0.031115  0.000000      2.000000
 -0.109532  0.031115  0.000000      2.000000
 -0.093884  0.031115  0.000000      2.000000
 -0.078237  0.031115  0.000000      2.000000
 -0.062590  0.031115  0.000000      2.000000
 -0.046942  0.031115  0.000000      2.000000
 -0.031295  0.031115  0.000000      2.000000
 -0.015647  0.031115  0.000000      2.000000
  0.000000  0.046673  0.000000      2.000000
  0.015647  0.046673  0.000000      2.000000
  0.031295  0.046673  0.000000      2.000000
  0.046942  0.046673  0.000000      2.000000
  0.062590  0.046673  0.000000      2.000000
  0.078237  0.046673  0.000000      2.000000
  0.093884  0.046673  0.000000      2.000000
  0.109532  0.046673  0.000000      2.000000
  0.125179  0.046673  0.000000      2.000000
  0.140827  0.046673  0.000000      2.000000
 -0.140827  0.046673  0.000000      2.000000
 -0.125179  0.046673  0.000000      2.000000
 -0.109532  0.046673  0.000000      2.000000
 -0.093884  0.046673  0.000000      2.000000
 -0.078237  0.046673  0.000000      2.000000
 -0.062590  0.046673  0.000000      2.000000
 -0.046942  0.046673  0.000000      2.000000
 -0.031295  0.046673  0.000000      2.000000
 -0.015647  0.046673  0.000000      2.000000
  0.000000  0.062230  0.000000      2.000000
  0.015647  0.062230  0.000000      2.000000
  0.031295  0.062230  0.000000      2.000000
  0.046942  0.062230  0.000000      2.000000
  0.062590  0.062230  0.000000      2.000000
  0.078237  0.062230  0.000000      2.000000
  0.093884  0.062230  0.000000      2.000000
  0.109532  0.062230  0.000000      2.000000
  0.125179  0.062230  0.000000      2.000000
  0.140827  0.062230  0.000000      2.000000
 -0.140827  0.062230  0.000000      2.000000
 -0.125179  0.062230  0.000000      2.000000
 -0.109532  0.062230  0.000000      2.000000
 -0.093884  0.062230  0.000000      2.000000
 -0.078237  0.062230  0.000000      2.000000
 -0.062590  0.062230  0.000000      2.000000
 -0.046942  0.062230  0.000000      2.000000
 -0.031295  0.062230  0.000000      2.000000
 -0.015647  0.062230  0.000000      2.000000
  0.000000  0.077788  0.000000      2.000000
  0.015647  0.077788  0.000000      2.000000
  0.031295  0.077788  0.000000      2.000000
  0.046942  0.077788  0.000000      2.000000
  0.062590  0.077788  0.000000      2.000000
  0.078237  0.077788  0.000000      2.000000
  0.093884  0.077788  0.000000      2.000000
  0.109532  0.077788  0.000000      2.000000
  0.125179  0.077788  0.000000      2.000000
  0.140827  0.077788  0.000000      2.000000
 -0.140827  0.077788  0.000000      2.000000
 -0.125179  0.077788  0.000000      2.000000
 -0.109532  0.077788  0.000000      2.000000
 -0.093884  0.077788  0.000000      2.000000
 -0.078237  0.077788  0.000000      2.000000
 -0.062590  0.077788  0.000000      2.000000
 -0.046942  0.077788  0.000000      2.000000
 -0.031295  0.077788  0.000000      2.000000
 -0.015647  0.077788  0.000000      2.000000
 


--------------------------------------------------------------------------------------------------------




 Dimension of arrays:
   k-points           NKPTS =    105   k-points in BZ     NKDIM =    105   number of bands    NBANDS=     24
   number of dos      NEDOS =    301   number of ions     NIONS =      6
   non local maximal  LDIM  =      6   non local SUM 2l+1 LMDIM =     18
   total plane-waves  NPLWV = 217728
   max r-space proj   IRMAX =      1   max aug-charges    IRDMAX=  35313
   dimension x,y,z NGX =    28 NGY =   48 NGZ =  162
   dimension x,y,z NGXF=    56 NGYF=   96 NGZF=  324
   support grid    NGXF=    56 NGYF=   96 NGZF=  324
   ions per type =               2   2   2
   NGX,Y,Z   is equivalent  to a cutoff of  13.84, 13.66, 13.30 a.u.
   NGXF,Y,Z  is equivalent  to a cutoff of  27.68, 27.31, 26.60 a.u.

 SYSTEM =  unknown system                          
 POSCAR =  Generated by VASPKIT code               

 Startparameter for this run:
   NWRITE =      2    write-flag & timer
   PREC   = accura    normal or accurate (medium, high low for compatibility)
   ISTART =      0    job   : 0-new  1-cont  2-samecut
   ICHARG =      2    charge: 1-file 2-atom 10-const
   ISPIN  =      1    spin polarized calculation?
   LNONCOLLINEAR =      F non collinear calculations
   LSORBIT =      F    spin-orbit coupling
   INIWAV =      1    electr: 0-lowe 1-rand  2-diag
   LASPH  =      F    aspherical Exc in radial PAW
   METAGGA=      F    non-selfconsistent MetaGGA calc.

 Electronic Relaxation 1
   ENCUT  =  600.0 eV  44.10 Ry    6.64 a.u.   6.72 11.67 40.45*2*pi/ulx,y,z
   ENINI  =  600.0     initial cutoff
   ENAUG  =  368.8 eV  augmentation charge cutoff
   NELM   =     60;   NELMIN=  2; NELMDL= -5     # of ELM steps 
   EDIFF  = 0.1E-06   stopping-criterion for ELM
   LREAL  =      F    real-space projection
   NLSPLINE    = F    spline interpolate recip. space projectors
   LCOMPAT=      F    compatible to vasp.4.4
   GGA_COMPAT  = T    GGA compatible to vasp.4.4-vasp.4.6
   LMAXPAW     = -100 max onsite density
   LMAXMIX     =    2 max onsite mixed and CHGCAR
   VOSKOWN=      0    Vosko Wilk Nusair interpolation
   ROPT   =    0.00000   0.00000   0.00000
 Ionic relaxation
   EDIFFG = -.1E-02   stopping-criterion for IOM
   NSW    =    100    number of steps for IOM
   NBLOCK =      1;   KBLOCK =    100    inner block; outer block 
   IBRION =      2    ionic relax: 0-MD 1-quasi-New 2-CG
   NFREE  =      1    steps in history (QN), initial steepest desc. (CG)
   ISIF   =      2    stress and relaxation
   IWAVPR =     11    prediction:  0-non 1-charg 2-wave 3-comb
   ISYM   =      0    0-nonsym 1-usesym 2-fastsym
   LCORR  =      T    Harris-Foulkes like correction to forces

   POTIM  = 0.5000    time-step for ionic-motion
   TEIN   =    0.0    initial temperature
   TEBEG  =    0.0;   TEEND  =   0.0 temperature during run
   SMASS  =  -3.00    Nose mass-parameter (am)
   estimated Nose-frequenzy (Omega)   =  0.10E-29 period in steps =****** mass=  -0.259E-27a.u.
   SCALEE = 1.0000    scale energy and forces
   NPACO  =    256;   APACO  = 16.0  distance and # of slots for P.C.
   PSTRESS=    0.0 pullay stress

  Mass of Ions in am
   POMASS =  95.94 32.07127.60
  Ionic Valenz
   ZVAL   =   6.00  6.00  6.00
  Atomic Wigner-Seitz radii
   RWIGS  =  -1.00 -1.00 -1.00
  virtual crystal weights 
   VCA    =   1.00  1.00  1.00
   NELECT =      36.0000    total number of electrons
   NUPDOWN=      -1.0000    fix difference up-down

 DOS related values:
   EMIN   =  10.00;   EMAX   =-10.00  energy-range for DOS
   EFERMI =   0.00
   ISMEAR =     0;   SIGMA  =   0.10  broadening in eV -4-tet -1-fermi 0-gaus

 Electronic relaxation 2 (details)
   IALGO  =     38    algorithm
   LDIAG  =      T    sub-space diagonalisation (order eigenvalues)
   LSUBROT=      F    optimize rotation matrix (better conditioning)
   TURBO    =      0    0=normal 1=particle mesh
   IRESTART =      0    0=no restart 2=restart with 2 vectors
   NREBOOT  =      0    no. of reboots
   NMIN     =      0    reboot dimension
   EREF     =   0.00    reference energy to select bands
   IMIX   =      4    mixing-type and parameters
     AMIX     =   0.40;   BMIX     =  1.00
     AMIX_MAG =   1.60;   BMIX_MAG =  1.00
     AMIN     =   0.10
     WC   =   100.;   INIMIX=   1;  MIXPRE=   1;  MAXMIX= -45

 Intra band minimization:
   WEIMIN = 0.0010     energy-eigenvalue tresh-hold
   EBREAK =  0.10E-08  absolut break condition
   DEPER  =   0.30     relativ break condition  

   TIME   =   0.40     timestep for ELM

  volume/ion in A,a.u.               =      66.34       447.71
  Fermi-wavevector in a.u.,A,eV,Ry     =   0.734839  1.388644  7.346984  0.539988
  Thomas-Fermi vector in A             =   1.827890
 
 Write flags
   LWAVE        =      F    write WAVECAR
   LDOWNSAMPLE  =      F    k-point downsampling of WAVECAR
   LCHARG       =      T    write CHGCAR
   LVTOT        =      F    write LOCPOT, total local potential
   LVHAR        =      F    write LOCPOT, Hartree potential only
   LELF         =      F    write electronic localiz. function (ELF)
   LORBIT       =      0    0 simple, 1 ext, 2 COOP (PROOUT), +10 PAW based schemes


 Dipole corrections
   LMONO  =      F    monopole corrections only (constant potential shift)
   LDIPOL =      T    correct potential (dipole corrections)
   IDIPOL =      3    1-x, 2-y, 3-z, 4-all directions 
   EPSILON=  1.0000000 bulk dielectric constant

 Exchange correlation treatment:
   GGA     =    PE    GGA type
   LEXCH   =     8    internal setting for exchange type
   VOSKOWN=      0    Vosko Wilk Nusair interpolation
   LHFCALC =     F    Hartree Fock is set to
   LHFONE  =     F    Hartree Fock one center treatment
   AEXX    =    0.0000 exact exchange contribution

 Linear response parameters
   LEPSILON=     F    determine dielectric tensor
   LRPA    =     F    only Hartree local field effects (RPA)
   LNABLA  =     F    use nabla operator in PAW spheres
   LVEL    =     F    velocity operator in full k-point grid
   LINTERFAST=   F  fast interpolation
   KINTER  =     0    interpolate to denser k-point grid
   CSHIFT  =0.1000    complex shift for real part using Kramers Kronig
   OMEGAMAX=  -1.0    maximum frequency
   DEG_THRESHOLD= 0.2000000E-02 threshold for treating states as degnerate
   RTIME   =   -0.100 relaxation time in fs
  (WPLASMAI=    0.000 imaginary part of plasma frequency in eV, 0.658/RTIME)
   DFIELD  = 0.0000000 0.0000000 0.0000000 field for delta impulse in time
 
 Orbital magnetization related:
   ORBITALMAG=     F  switch on orbital magnetization
   LCHIMAG   =     F  perturbation theory with respect to B field
   DQ        =  0.001000  dq finite difference perturbation B field
   LLRAUG    =     F  two centre corrections for induced B field



--------------------------------------------------------------------------------------------------------


 conjugate gradient relaxation of ions
 charge density and potential will be updated during run
 non-spin polarized calculation
 Variant of blocked Davidson
 Davidson routine will perform the subspace rotation
 perform sub-space diagonalisation
    after iterative eigenvector-optimisation
 modified Broyden-mixing scheme, WC =      100.0
 initial mixing is a Kerker type mixing with AMIX =  0.4000 and BMIX =      1.0000
 Hartree-type preconditioning will be used
 using additional bands            6
 reciprocal scheme for non local part
 use partial core corrections
 calculate Harris-corrections to forces 
   (improved forces if not selfconsistent)
 use gradient corrections 
 use of overlap-Matrix (Vanderbilt PP)
 Gauss-broadening in eV      SIGMA  =   0.10


--------------------------------------------------------------------------------------------------------


  energy-cutoff  :      600.00
  volume of cell :      398.06
      direct lattice vectors                 reciprocal lattice vectors
     3.363599539  0.000000000  0.000000000     0.297300552  0.000000000  0.000000000
     0.000000000  5.843403604  0.000000000     0.000000000  0.171133139  0.000000000
     0.000000000  0.000000000 20.252588272     0.000000000  0.000000000  0.049376405

  length of vectors
     3.363599539  5.843403604 20.252588272     0.297300552  0.171133139  0.049376405


 
 k-points in units of 2pi/SCALE and weight: K-Spacing Value to Generate K-Mesh: 0.01
   0.00000000  0.00000000  0.00000000       0.005
   0.01564740  0.00000000  0.00000000       0.010
   0.03129479  0.00000000  0.00000000       0.010
   0.04694219  0.00000000  0.00000000       0.010
   0.06258959  0.00000000  0.00000000       0.010
   0.07823699  0.00000000  0.00000000       0.010
   0.09388438  0.00000000  0.00000000       0.010
   0.10953178  0.00000000  0.00000000       0.010
   0.12517918  0.00000000  0.00000000       0.010
   0.14082658  0.00000000  0.00000000       0.010
   0.00000000  0.01555756  0.00000000       0.010
   0.01564740  0.01555756  0.00000000       0.010
   0.03129479  0.01555756  0.00000000       0.010
   0.04694219  0.01555756  0.00000000       0.010
   0.06258959  0.01555756  0.00000000       0.010
   0.07823699  0.01555756  0.00000000       0.010
   0.09388438  0.01555756  0.00000000       0.010
   0.10953178  0.01555756  0.00000000       0.010
   0.12517918  0.01555756  0.00000000       0.010
   0.14082658  0.01555756  0.00000000       0.010
  -0.14082658  0.01555756  0.00000000       0.010
  -0.12517918  0.01555756  0.00000000       0.010
  -0.10953178  0.01555756  0.00000000       0.010
  -0.09388438  0.01555756  0.00000000       0.010
  -0.07823699  0.01555756  0.00000000       0.010
  -0.06258959  0.01555756  0.00000000       0.010
  -0.04694219  0.01555756  0.00000000       0.010
  -0.03129479  0.01555756  0.00000000       0.010
  -0.01564740  0.01555756  0.00000000       0.010
   0.00000000  0.03111512  0.00000000       0.010
   0.01564740  0.03111512  0.00000000       0.010
   0.03129479  0.03111512  0.00000000       0.010
   0.04694219  0.03111512  0.00000000       0.010
   0.06258959  0.03111512  0.00000000       0.010
   0.07823699  0.03111512  0.00000000       0.010
   0.09388438  0.03111512  0.00000000       0.010
   0.10953178  0.03111512  0.00000000       0.010
   0.12517918  0.03111512  0.00000000       0.010
   0.14082658  0.03111512  0.00000000       0.010
  -0.14082658  0.03111512  0.00000000       0.010
  -0.12517918  0.03111512  0.00000000       0.010
  -0.10953178  0.03111512  0.00000000       0.010
  -0.09388438  0.03111512  0.00000000       0.010
  -0.07823699  0.03111512  0.00000000       0.010
  -0.06258959  0.03111512  0.00000000       0.010
  -0.04694219  0.03111512  0.00000000       0.010
  -0.03129479  0.03111512  0.00000000       0.010
  -0.01564740  0.03111512  0.00000000       0.010
   0.00000000  0.04667267  0.00000000       0.010
   0.01564740  0.04667267  0.00000000       0.010
   0.03129479  0.04667267  0.00000000       0.010
   0.04694219  0.04667267  0.00000000       0.010
   0.06258959  0.04667267  0.00000000       0.010
   0.07823699  0.04667267  0.00000000       0.010
   0.09388438  0.04667267  0.00000000       0.010
   0.10953178  0.04667267  0.00000000       0.010
   0.12517918  0.04667267  0.00000000       0.010
   0.14082658  0.04667267  0.00000000       0.010
  -0.14082658  0.04667267  0.00000000       0.010
  -0.12517918  0.04667267  0.00000000       0.010
  -0.10953178  0.04667267  0.00000000       0.010
  -0.09388438  0.04667267  0.00000000       0.010
  -0.07823699  0.04667267  0.00000000       0.010
  -0.06258959  0.04667267  0.00000000       0.010
  -0.04694219  0.04667267  0.00000000       0.010
  -0.03129479  0.04667267  0.00000000       0.010
  -0.01564740  0.04667267  0.00000000       0.010
   0.00000000  0.06223023  0.00000000       0.010
   0.01564740  0.06223023  0.00000000       0.010
   0.03129479  0.06223023  0.00000000       0.010
   0.04694219  0.06223023  0.00000000       0.010
   0.06258959  0.06223023  0.00000000       0.010
   0.07823699  0.06223023  0.00000000       0.010
   0.09388438  0.06223023  0.00000000       0.010
   0.10953178  0.06223023  0.00000000       0.010
   0.12517918  0.06223023  0.00000000       0.010
   0.14082658  0.06223023  0.00000000       0.010
  -0.14082658  0.06223023  0.00000000       0.010
  -0.12517918  0.06223023  0.00000000       0.010
  -0.10953178  0.06223023  0.00000000       0.010
  -0.09388438  0.06223023  0.00000000       0.010
  -0.07823699  0.06223023  0.00000000       0.010
  -0.06258959  0.06223023  0.00000000       0.010
  -0.04694219  0.06223023  0.00000000       0.010
  -0.03129479  0.06223023  0.00000000       0.010
  -0.01564740  0.06223023  0.00000000       0.010
   0.00000000  0.07778779  0.00000000       0.010
   0.01564740  0.07778779  0.00000000       0.010
   0.03129479  0.07778779  0.00000000       0.010
   0.04694219  0.07778779  0.00000000       0.010
   0.06258959  0.07778779  0.00000000       0.010
   0.07823699  0.07778779  0.00000000       0.010
   0.09388438  0.07778779  0.00000000       0.010
   0.10953178  0.07778779  0.00000000       0.010
   0.12517918  0.07778779  0.00000000       0.010
   0.14082658  0.07778779  0.00000000       0.010
  -0.14082658  0.07778779  0.00000000       0.010
  -0.12517918  0.07778779  0.00000000       0.010
  -0.10953178  0.07778779  0.00000000       0.010
  -0.09388438  0.07778779  0.00000000       0.010
  -0.07823699  0.07778779  0.00000000       0.010
  -0.06258959  0.07778779  0.00000000       0.010
  -0.04694219  0.07778779  0.00000000       0.010
  -0.03129479  0.07778779  0.00000000       0.010
  -0.01564740  0.07778779  0.00000000       0.010
 
 k-points in reciprocal lattice and weights: K-Spacing Value to Generate K-Mesh: 0.01
   0.00000000  0.00000000  0.00000000       0.005
   0.05263158  0.00000000  0.00000000       0.010
   0.10526316  0.00000000  0.00000000       0.010
   0.15789474  0.00000000  0.00000000       0.010
   0.21052632  0.00000000  0.00000000       0.010
   0.26315789  0.00000000  0.00000000       0.010
   0.31578947  0.00000000  0.00000000       0.010
   0.36842105  0.00000000  0.00000000       0.010
   0.42105263  0.00000000  0.00000000       0.010
   0.47368421  0.00000000  0.00000000       0.010
   0.00000000  0.09090909  0.00000000       0.010
   0.05263158  0.09090909  0.00000000       0.010
   0.10526316  0.09090909  0.00000000       0.010
   0.15789474  0.09090909  0.00000000       0.010
   0.21052632  0.09090909  0.00000000       0.010
   0.26315789  0.09090909  0.00000000       0.010
   0.31578947  0.09090909  0.00000000       0.010
   0.36842105  0.09090909  0.00000000       0.010
   0.42105263  0.09090909  0.00000000       0.010
   0.47368421  0.09090909  0.00000000       0.010
  -0.47368421  0.09090909  0.00000000       0.010
  -0.42105263  0.09090909  0.00000000       0.010
  -0.36842105  0.09090909  0.00000000       0.010
  -0.31578947  0.09090909  0.00000000       0.010
  -0.26315789  0.09090909  0.00000000       0.010
  -0.21052632  0.09090909  0.00000000       0.010
  -0.15789474  0.09090909  0.00000000       0.010
  -0.10526316  0.09090909  0.00000000       0.010
  -0.05263158  0.09090909  0.00000000       0.010
   0.00000000  0.18181818  0.00000000       0.010
   0.05263158  0.18181818  0.00000000       0.010
   0.10526316  0.18181818  0.00000000       0.010
   0.15789474  0.18181818  0.00000000       0.010
   0.21052632  0.18181818  0.00000000       0.010
   0.26315789  0.18181818  0.00000000       0.010
   0.31578947  0.18181818  0.00000000       0.010
   0.36842105  0.18181818  0.00000000       0.010
   0.42105263  0.18181818  0.00000000       0.010
   0.47368421  0.18181818  0.00000000       0.010
  -0.47368421  0.18181818  0.00000000       0.010
  -0.42105263  0.18181818  0.00000000       0.010
  -0.36842105  0.18181818  0.00000000       0.010
  -0.31578947  0.18181818  0.00000000       0.010
  -0.26315789  0.18181818  0.00000000       0.010
  -0.21052632  0.18181818  0.00000000       0.010
  -0.15789474  0.18181818  0.00000000       0.010
  -0.10526316  0.18181818  0.00000000       0.010
  -0.05263158  0.18181818  0.00000000       0.010
   0.00000000  0.27272727  0.00000000       0.010
   0.05263158  0.27272727  0.00000000       0.010
   0.10526316  0.27272727  0.00000000       0.010
   0.15789474  0.27272727  0.00000000       0.010
   0.21052632  0.27272727  0.00000000       0.010
   0.26315789  0.27272727  0.00000000       0.010
   0.31578947  0.27272727  0.00000000       0.010
   0.36842105  0.27272727  0.00000000       0.010
   0.42105263  0.27272727  0.00000000       0.010
   0.47368421  0.27272727  0.00000000       0.010
  -0.47368421  0.27272727  0.00000000       0.010
  -0.42105263  0.27272727  0.00000000       0.010
  -0.36842105  0.27272727  0.00000000       0.010
  -0.31578947  0.27272727  0.00000000       0.010
  -0.26315789  0.27272727  0.00000000       0.010
  -0.21052632  0.27272727  0.00000000       0.010
  -0.15789474  0.27272727  0.00000000       0.010
  -0.10526316  0.27272727  0.00000000       0.010
  -0.05263158  0.27272727  0.00000000       0.010
   0.00000000  0.36363636  0.00000000       0.010
   0.05263158  0.36363636  0.00000000       0.010
   0.10526316  0.36363636  0.00000000       0.010
   0.15789474  0.36363636  0.00000000       0.010
   0.21052632  0.36363636  0.00000000       0.010
   0.26315789  0.36363636  0.00000000       0.010
   0.31578947  0.36363636  0.00000000       0.010
   0.36842105  0.36363636  0.00000000       0.010
   0.42105263  0.36363636  0.00000000       0.010
   0.47368421  0.36363636  0.00000000       0.010
  -0.47368421  0.36363636  0.00000000       0.010
  -0.42105263  0.36363636  0.00000000       0.010
  -0.36842105  0.36363636  0.00000000       0.010
  -0.31578947  0.36363636  0.00000000       0.010
  -0.26315789  0.36363636  0.00000000       0.010
  -0.21052632  0.36363636  0.00000000       0.010
  -0.15789474  0.36363636  0.00000000       0.010
  -0.10526316  0.36363636  0.00000000       0.010
  -0.05263158  0.36363636  0.00000000       0.010
   0.00000000  0.45454545  0.00000000       0.010
   0.05263158  0.45454545  0.00000000       0.010
   0.10526316  0.45454545  0.00000000       0.010
   0.15789474  0.45454545  0.00000000       0.010
   0.21052632  0.45454545  0.00000000       0.010
   0.26315789  0.45454545  0.00000000       0.010
   0.31578947  0.45454545  0.00000000       0.010
   0.36842105  0.45454545  0.00000000       0.010
   0.42105263  0.45454545  0.00000000       0.010
   0.47368421  0.45454545  0.00000000       0.010
  -0.47368421  0.45454545  0.00000000       0.010
  -0.42105263  0.45454545  0.00000000       0.010
  -0.36842105  0.45454545  0.00000000       0.010
  -0.31578947  0.45454545  0.00000000       0.010
  -0.26315789  0.45454545  0.00000000       0.010
  -0.21052632  0.45454545  0.00000000       0.010
  -0.15789474  0.45454545  0.00000000       0.010
  -0.10526316  0.45454545  0.00000000       0.010
  -0.05263158  0.45454545  0.00000000       0.010
 
 position of ions in fractional coordinates (direct lattice) 
   0.49999997  0.16666654  0.50703967
   0.00000000  0.66666651  0.50703967
   0.49999997  0.83333325  0.57974952
   0.00000000  0.33333322  0.57974952
   0.50000000  0.83333325  0.41321075
   0.00000000  0.33333325  0.41321075
 
 position of ions in cartesian coordinates  (Angst):
   1.68179967  0.97389985 10.26886559
   0.00000000  3.89560148 10.26886559
   1.68179967  4.86950254 11.74142843
   0.00000000  1.94780056 11.74142843
   1.68179977  4.86950254  8.36858719
   0.00000000  1.94780074  8.36858719
 


--------------------------------------------------------------------------------------------------------


 k-point  1 :   0.0000 0.0000 0.0000  plane waves:   13319
 k-point  2 :   0.0526 0.0000 0.0000  plane waves:   13317
 k-point  3 :   0.1053 0.0000 0.0000  plane waves:   13305
 k-point  4 :   0.1579 0.0000 0.0000  plane waves:   13319
 k-point  5 :   0.2105 0.0000 0.0000  plane waves:   13303
 k-point  6 :   0.2632 0.0000 0.0000  plane waves:   13273
 k-point  7 :   0.3158 0.0000 0.0000  plane waves:   13274
 k-point  8 :   0.3684 0.0000 0.0000  plane waves:   13264
 k-point  9 :   0.4211 0.0000 0.0000  plane waves:   13288
 k-point 10 :   0.4737 0.0000 0.0000  plane waves:   13250
 k-point 11 :   0.0000 0.0909 0.0000  plane waves:   13321
 k-point 12 :   0.0526 0.0909 0.0000  plane waves:   13322
 k-point 13 :   0.1053 0.0909 0.0000  plane waves:   13313
 k-point 14 :   0.1579 0.0909 0.0000  plane waves:   13297
 k-point 15 :   0.2105 0.0909 0.0000  plane waves:   13303
 k-point 16 :   0.2632 0.0909 0.0000  plane waves:   13284
 k-point 17 :   0.3158 0.0909 0.0000  plane waves:   13265
 k-point 18 :   0.3684 0.0909 0.0000  plane waves:   13274
 k-point 19 :   0.4211 0.0909 0.0000  plane waves:   13277
 k-point 20 :   0.4737 0.0909 0.0000  plane waves:   13276
 k-point 21 :  -0.4737 0.0909 0.0000  plane waves:   13276
 k-point 22 :  -0.4211 0.0909 0.0000  plane waves:   13277
 k-point 23 :  -0.3684 0.0909 0.0000  plane waves:   13274
 k-point 24 :  -0.3158 0.0909 0.0000  plane waves:   13265
 k-point 25 :  -0.2632 0.0909 0.0000  plane waves:   13284
 k-point 26 :  -0.2105 0.0909 0.0000  plane waves:   13303
 k-point 27 :  -0.1579 0.0909 0.0000  plane waves:   13297
 k-point 28 :  -0.1053 0.0909 0.0000  plane waves:   13313
 k-point 29 :  -0.0526 0.0909 0.0000  plane waves:   13322
 k-point 30 :   0.0000 0.1818 0.0000  plane waves:   13301
 k-point 31 :   0.0526 0.1818 0.0000  plane waves:   13301
 k-point 32 :   0.1053 0.1818 0.0000  plane waves:   13296
 k-point 33 :   0.1579 0.1818 0.0000  plane waves:   13282
 k-point 34 :   0.2105 0.1818 0.0000  plane waves:   13290
 k-point 35 :   0.2632 0.1818 0.0000  plane waves:   13266
 k-point 36 :   0.3158 0.1818 0.0000  plane waves:   13264
 k-point 37 :   0.3684 0.1818 0.0000  plane waves:   13286
 k-point 38 :   0.4211 0.1818 0.0000  plane waves:   13284
 k-point 39 :   0.4737 0.1818 0.0000  plane waves:   13278
 k-point 40 :  -0.4737 0.1818 0.0000  plane waves:   13278
 k-point 41 :  -0.4211 0.1818 0.0000  plane waves:   13284
 k-point 42 :  -0.3684 0.1818 0.0000  plane waves:   13286
 k-point 43 :  -0.3158 0.1818 0.0000  plane waves:   13264
 k-point 44 :  -0.2632 0.1818 0.0000  plane waves:   13266
 k-point 45 :  -0.2105 0.1818 0.0000  plane waves:   13290
 k-point 46 :  -0.1579 0.1818 0.0000  plane waves:   13282
 k-point 47 :  -0.1053 0.1818 0.0000  plane waves:   13296
 k-point 48 :  -0.0526 0.1818 0.0000  plane waves:   13301
 k-point 49 :   0.0000 0.2727 0.0000  plane waves:   13281
 k-point 50 :   0.0526 0.2727 0.0000  plane waves:   13299
 k-point 51 :   0.1053 0.2727 0.0000  plane waves:   13290
 k-point 52 :   0.1579 0.2727 0.0000  plane waves:   13284
 k-point 53 :   0.2105 0.2727 0.0000  plane waves:   13277
 k-point 54 :   0.2632 0.2727 0.0000  plane waves:   13267
 k-point 55 :   0.3158 0.2727 0.0000  plane waves:   13258
 k-point 56 :   0.3684 0.2727 0.0000  plane waves:   13283
 k-point 57 :   0.4211 0.2727 0.0000  plane waves:   13304
 k-point 58 :   0.4737 0.2727 0.0000  plane waves:   13283
 k-point 59 :  -0.4737 0.2727 0.0000  plane waves:   13283
 k-point 60 :  -0.4211 0.2727 0.0000  plane waves:   13304
 k-point 61 :  -0.3684 0.2727 0.0000  plane waves:   13283
 k-point 62 :  -0.3158 0.2727 0.0000  plane waves:   13258
 k-point 63 :  -0.2632 0.2727 0.0000  plane waves:   13267
 k-point 64 :  -0.2105 0.2727 0.0000  plane waves:   13277
 k-point 65 :  -0.1579 0.2727 0.0000  plane waves:   13284
 k-point 66 :  -0.1053 0.2727 0.0000  plane waves:   13290
 k-point 67 :  -0.0526 0.2727 0.0000  plane waves:   13299
 k-point 68 :   0.0000 0.3636 0.0000  plane waves:   13270
 k-point 69 :   0.0526 0.3636 0.0000  plane waves:   13286
 k-point 70 :   0.1053 0.3636 0.0000  plane waves:   13280
 k-point 71 :   0.1579 0.3636 0.0000  plane waves:   13283
 k-point 72 :   0.2105 0.3636 0.0000  plane waves:   13267
 k-point 73 :   0.2632 0.3636 0.0000  plane waves:   13274
 k-point 74 :   0.3158 0.3636 0.0000  plane waves:   13273
 k-point 75 :   0.3684 0.3636 0.0000  plane waves:   13291
 k-point 76 :   0.4211 0.3636 0.0000  plane waves:   13287
 k-point 77 :   0.4737 0.3636 0.0000  plane waves:   13303
 k-point 78 :  -0.4737 0.3636 0.0000  plane waves:   13303
 k-point 79 :  -0.4211 0.3636 0.0000  plane waves:   13287
 k-point 80 :  -0.3684 0.3636 0.0000  plane waves:   13291
 k-point 81 :  -0.3158 0.3636 0.0000  plane waves:   13273
 k-point 82 :  -0.2632 0.3636 0.0000  plane waves:   13274
 k-point 83 :  -0.2105 0.3636 0.0000  plane waves:   13267
 k-point 84 :  -0.1579 0.3636 0.0000  plane waves:   13283
 k-point 85 :  -0.1053 0.3636 0.0000  plane waves:   13280
 k-point 86 :  -0.0526 0.3636 0.0000  plane waves:   13286
 k-point 87 :   0.0000 0.4545 0.0000  plane waves:   13276
 k-point 88 :   0.0526 0.4545 0.0000  plane waves:   13262
 k-point 89 :   0.1053 0.4545 0.0000  plane waves:   13271
 k-point 90 :   0.1579 0.4545 0.0000  plane waves:   13278
 k-point 91 :   0.2105 0.4545 0.0000  plane waves:   13277
 k-point 92 :   0.2632 0.4545 0.0000  plane waves:   13265
 k-point 93 :   0.3158 0.4545 0.0000  plane waves:   13264
 k-point 94 :   0.3684 0.4545 0.0000  plane waves:   13274
 k-point 95 :   0.4211 0.4545 0.0000  plane waves:   13298
 k-point 96 :   0.4737 0.4545 0.0000  plane waves:   13330
 k-point 97 :  -0.4737 0.4545 0.0000  plane waves:   13330
 k-point 98 :  -0.4211 0.4545 0.0000  plane waves:   13298
 k-point 99 :  -0.3684 0.4545 0.0000  plane waves:   13274
 k-point ** :  -0.3158 0.4545 0.0000  plane waves:   13264
 k-point ** :  -0.2632 0.4545 0.0000  plane waves:   13265
 k-point ** :  -0.2105 0.4545 0.0000  plane waves:   13277
 k-point ** :  -0.1579 0.4545 0.0000  plane waves:   13278
 k-point ** :  -0.1053 0.4545 0.0000  plane waves:   13271
 k-point ** :  -0.0526 0.4545 0.0000  plane waves:   13262

 maximum and minimum number of plane-waves per node :       572      535

 maximum number of plane-waves:     13330
 maximum index in each direction: 
   IXMAX=    7   IYMAX=   11   IZMAX=   40
   IXMIN=   -7   IYMIN=  -12   IZMIN=  -40


 parallel 3D FFT for wavefunctions:
    minimum data exchange during FFTs selected (reduces bandwidth)
 parallel 3D FFT for charge:
    minimum data exchange during FFTs selected (reduces bandwidth)


 total amount of memory used by VASP MPI-rank0    62433. kBytes
=======================================================================

   base      :      30000. kBytes
   nonl-proj :      25455. kBytes
   fftplans  :       1397. kBytes
   grid      :       2623. kBytes
   one-center:         15. kBytes
   wavefun   :       2943. kBytes
 
     INWAV:  cpu time    0.0000: real time    0.0000
 Broyden mixing: mesh for mixing (old mesh)
   NGX = 13   NGY = 23   NGZ = 81
  (NGX  = 56   NGY  = 96   NGZ  =324)
  gives a total of  24219 points

 initial charge density was supplied:
 charge density of overlapping atoms calculated
 number of electron      36.0000000 magnetization 
 keeping initial charge density in first step


--------------------------------------------------------------------------------------------------------


 Maximum index for augmentation-charges         1247 (set IRDMAX)


--------------------------------------------------------------------------------------------------------


 First call to EWALD:  gamma=   0.241
 Maximum number of real-space cells 5x 3x 1
 Maximum number of reciprocal cells 2x 2x 7

    FEWALD:  cpu time    0.0015: real time    0.0015


--------------------------------------- Iteration      1(   1)  ---------------------------------------


    POTLOK:  cpu time    0.0352: real time    0.0687
    SETDIJ:  cpu time    0.0051: real time    0.0051
     EDDAV:  cpu time    1.1952: real time    1.2059
       DOS:  cpu time    0.0014: real time    0.0014
    --------------------------------------------
      LOOP:  cpu time    1.2369: real time    1.2811

 eigenvalue-minimisations  :  5040
 total energy-change (2. order) : 0.2728647E+03  (-0.1297588E+04)
 number of electron      36.0000000 magnetization 
 augmentation part       36.0000000 magnetization 

 DIPCOR: dipole corrections for dipol
 direction  3 min pos     1,
 dipolmoment           0.000000      0.000000      0.000002 electrons x Angstroem
 Tr[quadrupol]      -125.087958

 energy correction for charged system         0.000000 eV
 dipol+quadrupol energy correction           -0.000000 eV
 added-field ion interaction          0.000000 eV  (added to PSCEN)


 Free energy of the ion-electron system (eV)
  ---------------------------------------------------
  alpha Z        PSCENC =        26.02619767
  Ewald energy   TEWEN  =      4164.81021819
  -Hartree energ DENC   =     -5485.75292468
  -exchange      EXHF   =         0.00000000
  -V(xc)+E(xc)   XCENC  =      -153.12715511
  PAW double counting   =      1381.62273368    -1155.94054365
  entropy T*S    EENTRO =        -0.01484957
  eigenvalues    EBANDS =        60.01930887
  atomic energy  EATOM  =      1435.22174307
  Solvation  Ediel_sol  =         0.00000000
  ---------------------------------------------------
  free energy    TOTEN  =       272.86472846 eV

  energy without entropy =      272.87957803  energy(sigma->0) =      272.87215325


--------------------------------------------------------------------------------------------------------




--------------------------------------- Iteration      1(   2)  ---------------------------------------


     EDDAV:  cpu time    1.3999: real time    1.4001
       DOS:  cpu time    0.0014: real time    0.0014
    --------------------------------------------
      LOOP:  cpu time    1.4013: real time    1.4016

 eigenvalue-minimisations  :  7848
 total energy-change (2. order) :-0.2794898E+03  (-0.2710335E+03)
 number of electron      36.0000000 magnetization 
 augmentation part       36.0000000 magnetization 

 DIPCOR: dipole corrections for dipol
 direction  3 min pos     1,
 dipolmoment           0.000000      0.000000      0.000002 electrons x Angstroem
 Tr[quadrupol]      -125.087958

 energy correction for charged system         0.000000 eV
 dipol+quadrupol energy correction           -0.000000 eV
 added-field ion interaction          0.000000 eV  (added to PSCEN)


 Free energy of the ion-electron system (eV)
  ---------------------------------------------------
  alpha Z        PSCENC =        26.02619767
  Ewald energy   TEWEN  =      4164.81021819
  -Hartree energ DENC   =     -5485.75292468
  -exchange      EXHF   =         0.00000000
  -V(xc)+E(xc)   XCENC  =      -153.12715511
  PAW double counting   =      1381.62273368    -1155.94054365
  entropy T*S    EENTRO =        -0.00098100
  eigenvalues    EBANDS =      -219.48431974
  atomic energy  EATOM  =      1435.22174307
  Solvation  Ediel_sol  =         0.00000000
  ---------------------------------------------------
  free energy    TOTEN  =        -6.62503158 eV

  energy without entropy =       -6.62405058  energy(sigma->0) =       -6.62454108


--------------------------------------------------------------------------------------------------------




--------------------------------------- Iteration      1(   3)  ---------------------------------------


     EDDAV:  cpu time    1.2843: real time    1.2847
       DOS:  cpu time    0.0012: real time    0.0012
    --------------------------------------------
      LOOP:  cpu time    1.2855: real time    1.2859

 eigenvalue-minimisations  :  6648
 total energy-change (2. order) :-0.3412853E+02  (-0.3381976E+02)
 number of electron      36.0000000 magnetization 
 augmentation part       36.0000000 magnetization 

 DIPCOR: dipole corrections for dipol
 direction  3 min pos     1,
 dipolmoment           0.000000      0.000000      0.000002 electrons x Angstroem
 Tr[quadrupol]      -125.087958

 energy correction for charged system         0.000000 eV
 dipol+quadrupol energy correction           -0.000000 eV
 added-field ion interaction          0.000000 eV  (added to PSCEN)


 Free energy of the ion-electron system (eV)
  ---------------------------------------------------
  alpha Z        PSCENC =        26.02619767
  Ewald energy   TEWEN  =      4164.81021819
  -Hartree energ DENC   =     -5485.75292468
  -exchange      EXHF   =         0.00000000
  -V(xc)+E(xc)   XCENC  =      -153.12715511
  PAW double counting   =      1381.62273368    -1155.94054365
  entropy T*S    EENTRO =        -0.00000000
  eigenvalues    EBANDS =      -253.61383022
  atomic energy  EATOM  =      1435.22174307
  Solvation  Ediel_sol  =         0.00000000
  ---------------------------------------------------
  free energy    TOTEN  =       -40.75356106 eV

  energy without entropy =      -40.75356106  energy(sigma->0) =      -40.75356106


--------------------------------------------------------------------------------------------------------




--------------------------------------- Iteration      1(   4)  ---------------------------------------


     EDDAV:  cpu time    1.3368: real time    1.3373
       DOS:  cpu time    0.0011: real time    0.0011
    --------------------------------------------
      LOOP:  cpu time    1.3379: real time    1.3384

 eigenvalue-minimisations  :  7320
 total energy-change (2. order) :-0.1142176E+01  (-0.1136803E+01)
 number of electron      36.0000000 magnetization 
 augmentation part       36.0000000 magnetization 

 DIPCOR: dipole corrections for dipol
 direction  3 min pos     1,
 dipolmoment           0.000000      0.000000      0.000002 electrons x Angstroem
 Tr[quadrupol]      -125.087958

 energy correction for charged system         0.000000 eV
 dipol+quadrupol energy correction           -0.000000 eV
 added-field ion interaction          0.000000 eV  (added to PSCEN)


 Free energy of the ion-electron system (eV)
  ---------------------------------------------------
  alpha Z        PSCENC =        26.02619767
  Ewald energy   TEWEN  =      4164.81021819
  -Hartree energ DENC   =     -5485.75292468
  -exchange      EXHF   =         0.00000000
  -V(xc)+E(xc)   XCENC  =      -153.12715511
  PAW double counting   =      1381.62273368    -1155.94054365
  entropy T*S    EENTRO =        -0.00000000
  eigenvalues    EBANDS =      -254.75600615
  atomic energy  EATOM  =      1435.22174307
  Solvation  Ediel_sol  =         0.00000000
  ---------------------------------------------------
  free energy    TOTEN  =       -41.89573699 eV

  energy without entropy =      -41.89573699  energy(sigma->0) =      -41.89573699


--------------------------------------------------------------------------------------------------------




--------------------------------------- Iteration      1(   5)  ---------------------------------------


     EDDAV:  cpu time    1.3521: real time    1.3530
       DOS:  cpu time    0.0012: real time    0.0012
    CHARGE:  cpu time    0.0434: real time    0.0434
    MIXING:  cpu time    0.0005: real time    0.0005
    --------------------------------------------
      LOOP:  cpu time    1.3972: real time    1.3981

 eigenvalue-minimisations  :  7520
 total energy-change (2. order) :-0.3626657E-01  (-0.3625085E-01)
 number of electron      36.0000000 magnetization 
 augmentation part       -2.3444142 magnetization 

 DIPCOR: dipole corrections for dipol
 direction  3 min pos     1,
 dipolmoment           0.000000      0.000000      0.000002 electrons x Angstroem
 Tr[quadrupol]      -125.087958

 energy correction for charged system         0.000000 eV
 dipol+quadrupol energy correction           -0.000000 eV
 added-field ion interaction          0.000000 eV  (added to PSCEN)


 Broyden mixing:
  rms(total) = 0.26802E+01    rms(broyden)= 0.26802E+01
  rms(prec ) = 0.27215E+01
  weight for this iteration     100.00

 Free energy of the ion-electron system (eV)
  ---------------------------------------------------
  alpha Z        PSCENC =        26.02619767
  Ewald energy   TEWEN  =      4164.81021819
  -Hartree energ DENC   =     -5485.75292468
  -exchange      EXHF   =         0.00000000
  -V(xc)+E(xc)   XCENC  =      -153.12715511
  PAW double counting   =      1381.62273368    -1155.94054365
  entropy T*S    EENTRO =        -0.00000000
  eigenvalues    EBANDS =      -254.79227272
  atomic energy  EATOM  =      1435.22174307
  Solvation  Ediel_sol  =         0.00000000
  ---------------------------------------------------
  free energy    TOTEN  =       -41.93200356 eV

  energy without entropy =      -41.93200356  energy(sigma->0) =      -41.93200356


--------------------------------------------------------------------------------------------------------




--------------------------------------- Iteration      1(   6)  ---------------------------------------


    POTLOK:  cpu time    0.0125: real time    0.0125
    SETDIJ:  cpu time    0.0020: real time    0.0020
     EDDAV:  cpu time    1.3095: real time    1.3100
       DOS:  cpu time    0.0015: real time    0.0015
    CHARGE:  cpu time    0.0434: real time    0.0434
    MIXING:  cpu time    0.0003: real time    0.0003
    --------------------------------------------
      LOOP:  cpu time    1.3693: real time    1.3697

 eigenvalue-minimisations  :  7120
 total energy-change (2. order) : 0.1945356E+01  (-0.1214676E+01)
 number of electron      36.0000000 magnetization 
 augmentation part       -1.4052241 magnetization 

 DIPCOR: dipole corrections for dipol
 direction  3 min pos     1,
 dipolmoment           0.000000      0.000000      0.187731 electrons x Angstroem
 Tr[quadrupol]      -125.120317

 energy correction for charged system         0.000000 eV
 dipol+quadrupol energy correction           -0.008010 eV
 added-field ion interaction          0.000001 eV  (added to PSCEN)


 Broyden mixing:
  rms(total) = 0.11640E+01    rms(broyden)= 0.11640E+01
  rms(prec ) = 0.11982E+01
  weight for this iteration     100.00

 eigenvalues of (default mixing * dielectric matrix)
  average eigenvalue GAMMA=   1.2032
  1.2032

 Free energy of the ion-electron system (eV)
  ---------------------------------------------------
  alpha Z        PSCENC =        26.01818844
  Ewald energy   TEWEN  =      4164.81021819
  -Hartree energ DENC   =     -5485.02854748
  -exchange      EXHF   =         0.00000000
  -V(xc)+E(xc)   XCENC  =      -151.85693143
  PAW double counting   =      1932.02031888    -1707.82957168
  entropy T*S    EENTRO =        -0.00000043
  eigenvalues    EBANDS =      -253.34206516
  atomic energy  EATOM  =      1435.22174307
  Solvation  Ediel_sol  =         0.00000000
  ---------------------------------------------------
  free energy    TOTEN  =       -39.98664760 eV

  energy without entropy =      -39.98664718  energy(sigma->0) =      -39.98664739


--------------------------------------------------------------------------------------------------------




--------------------------------------- Iteration      1(   7)  ---------------------------------------


    POTLOK:  cpu time    0.0132: real time    0.0132
    SETDIJ:  cpu time    0.0020: real time    0.0020
     EDDAV:  cpu time    1.2927: real time    1.2934
       DOS:  cpu time    0.0012: real time    0.0012
    CHARGE:  cpu time    0.0425: real time    0.0425
    MIXING:  cpu time    0.0004: real time    0.0004
    --------------------------------------------
      LOOP:  cpu time    1.3521: real time    1.3527

 eigenvalue-minimisations  :  6888
 total energy-change (2. order) : 0.1933221E+00  (-0.6953555E+00)
 number of electron      36.0000000 magnetization 
 augmentation part       -2.0215729 magnetization 

 DIPCOR: dipole corrections for dipol
 direction  3 min pos     1,
 dipolmoment           0.000000      0.000000      0.186808 electrons x Angstroem
 Tr[quadrupol]      -125.889536

 energy correction for charged system         0.000000 eV
 dipol+quadrupol energy correction           -0.007932 eV
 added-field ion interaction          0.000001 eV  (added to PSCEN)


 Broyden mixing:
  rms(total) = 0.72626E+00    rms(broyden)= 0.72626E+00
  rms(prec ) = 0.76009E+00
  weight for this iteration     100.00

 eigenvalues of (default mixing * dielectric matrix)
  average eigenvalue GAMMA=   1.1993
  1.7885  0.6101

 Free energy of the ion-electron system (eV)
  ---------------------------------------------------
  alpha Z        PSCENC =        26.01826704
  Ewald energy   TEWEN  =      4164.81021819
  -Hartree energ DENC   =     -5500.28534201
  -exchange      EXHF   =         0.00000000
  -V(xc)+E(xc)   XCENC  =      -152.04146310
  PAW double counting   =      2464.49385880    -2240.89382498
  entropy T*S    EENTRO =        -0.00000000
  eigenvalues    EBANDS =      -237.11678250
  atomic energy  EATOM  =      1435.22174307
  Solvation  Ediel_sol  =         0.00000000
  ---------------------------------------------------
  free energy    TOTEN  =       -39.79332549 eV

  energy without entropy =      -39.79332549  energy(sigma->0) =      -39.79332549


--------------------------------------------------------------------------------------------------------




--------------------------------------- Iteration      1(   8)  ---------------------------------------


    POTLOK:  cpu time    0.0122: real time    0.0122
    SETDIJ:  cpu time    0.0019: real time    0.0019
     EDDAV:  cpu time    1.2771: real time    1.2775
       DOS:  cpu time    0.0011: real time    0.0011
    CHARGE:  cpu time    0.0425: real time    0.0425
    MIXING:  cpu time    0.0004: real time    0.0004
    --------------------------------------------
      LOOP:  cpu time    1.3352: real time    1.3355

 eigenvalue-minimisations  :  6856
 total energy-change (2. order) : 0.3520704E+00  (-0.1548813E+00)
 number of electron      36.0000000 magnetization 
 augmentation part       -1.7214683 magnetization 

 DIPCOR: dipole corrections for dipol
 direction  3 min pos     1,
 dipolmoment           0.000000      0.000000      0.136937 electrons x Angstroem
 Tr[quadrupol]      -125.855186

 energy correction for charged system         0.000000 eV
 dipol+quadrupol energy correction           -0.004262 eV
 added-field ion interaction          0.000001 eV  (added to PSCEN)


 Broyden mixing:
  rms(total) = 0.26648E+00    rms(broyden)= 0.26648E+00
  rms(prec ) = 0.27227E+00
  weight for this iteration     100.00

 eigenvalues of (default mixing * dielectric matrix)
  average eigenvalue GAMMA=   1.0999
  2.0533  0.6577  0.5888

 Free energy of the ion-electron system (eV)
  ---------------------------------------------------
  alpha Z        PSCENC =        26.02193646
  Ewald energy   TEWEN  =      4164.81021819
  -Hartree energ DENC   =     -5498.00702960
  -exchange      EXHF   =         0.00000000
  -V(xc)+E(xc)   XCENC  =      -151.56801634
  PAW double counting   =      2811.16495699    -2588.11663922
  entropy T*S    EENTRO =        -0.00000000
  eigenvalues    EBANDS =      -238.96842463
  atomic energy  EATOM  =      1435.22174307
  Solvation  Ediel_sol  =         0.00000000
  ---------------------------------------------------
  free energy    TOTEN  =       -39.44125509 eV

  energy without entropy =      -39.44125509  energy(sigma->0) =      -39.44125509


--------------------------------------------------------------------------------------------------------




--------------------------------------- Iteration      1(   9)  ---------------------------------------


    POTLOK:  cpu time    0.0122: real time    0.0122
    SETDIJ:  cpu time    0.0021: real time    0.0021
     EDDAV:  cpu time    1.2682: real time    1.2685
       DOS:  cpu time    0.0011: real time    0.0011
    CHARGE:  cpu time    0.0427: real time    0.0427
    MIXING:  cpu time    0.0004: real time    0.0004
    --------------------------------------------
      LOOP:  cpu time    1.3266: real time    1.3269

 eigenvalue-minimisations  :  6648
 total energy-change (2. order) : 0.1522266E-01  (-0.1071802E-01)
 number of electron      36.0000000 magnetization 
 augmentation part       -1.7113002 magnetization 

 DIPCOR: dipole corrections for dipol
 direction  3 min pos     1,
 dipolmoment           0.000000      0.000000      0.164755 electrons x Angstroem
 Tr[quadrupol]      -125.964231

 energy correction for charged system         0.000000 eV
 dipol+quadrupol energy correction           -0.006170 eV
 added-field ion interaction          0.000001 eV  (added to PSCEN)


 Broyden mixing:
  rms(total) = 0.97433E-01    rms(broyden)= 0.97433E-01
  rms(prec ) = 0.10000E+00
  weight for this iteration     100.00

 eigenvalues of (default mixing * dielectric matrix)
  average eigenvalue GAMMA=   1.1500
  2.0103  0.9933  0.9933  0.6030

 Free energy of the ion-electron system (eV)
  ---------------------------------------------------
  alpha Z        PSCENC =        26.02002903
  Ewald energy   TEWEN  =      4164.81021819
  -Hartree energ DENC   =     -5500.32084747
  -exchange      EXHF   =         0.00000000
  -V(xc)+E(xc)   XCENC  =      -151.45525974
  PAW double counting   =      2939.93750667    -2717.06782142
  entropy T*S    EENTRO =        -0.00000000
  eigenvalues    EBANDS =      -236.57160077
  atomic energy  EATOM  =      1435.22174307
  Solvation  Ediel_sol  =         0.00000000
  ---------------------------------------------------
  free energy    TOTEN  =       -39.42603243 eV

  energy without entropy =      -39.42603243  energy(sigma->0) =      -39.42603243


--------------------------------------------------------------------------------------------------------




--------------------------------------- Iteration      1(  10)  ---------------------------------------


    POTLOK:  cpu time    0.0122: real time    0.0122
    SETDIJ:  cpu time    0.0020: real time    0.0020
     EDDAV:  cpu time    1.3592: real time    1.3598
       DOS:  cpu time    0.0011: real time    0.0011
    CHARGE:  cpu time    0.0428: real time    0.0428
    MIXING:  cpu time    0.0004: real time    0.0004
    --------------------------------------------
      LOOP:  cpu time    1.4177: real time    1.4183

 eigenvalue-minimisations  :  7400
 total energy-change (2. order) : 0.2537287E-02  (-0.2194137E-02)
 number of electron      36.0000000 magnetization 
 augmentation part       -1.7317655 magnetization 

 DIPCOR: dipole corrections for dipol
 direction  3 min pos     1,
 dipolmoment           0.000000      0.000000      0.168196 electrons x Angstroem
 Tr[quadrupol]      -126.043233

 energy correction for charged system         0.000000 eV
 dipol+quadrupol energy correction           -0.006430 eV
 added-field ion interaction          0.000001 eV  (added to PSCEN)


 Broyden mixing:
  rms(total) = 0.83010E-01    rms(broyden)= 0.83010E-01
  rms(prec ) = 0.84089E-01
  weight for this iteration     100.00

 eigenvalues of (default mixing * dielectric matrix)
  average eigenvalue GAMMA=   1.3258
  2.1761  2.1761  1.0366  0.6200  0.6200

 Free energy of the ion-electron system (eV)
  ---------------------------------------------------
  alpha Z        PSCENC =        26.01976868
  Ewald energy   TEWEN  =      4164.81021819
  -Hartree energ DENC   =     -5502.18368724
  -exchange      EXHF   =         0.00000000
  -V(xc)+E(xc)   XCENC  =      -151.41457996
  PAW double counting   =      2959.34951557    -2736.53721595
  entropy T*S    EENTRO =        -0.00000000
  eigenvalues    EBANDS =      -234.68925750
  atomic energy  EATOM  =      1435.22174307
  Solvation  Ediel_sol  =         0.00000000
  ---------------------------------------------------
  free energy    TOTEN  =       -39.42349514 eV

  energy without entropy =      -39.42349514  energy(sigma->0) =      -39.42349514


--------------------------------------------------------------------------------------------------------




--------------------------------------- Iteration      1(  11)  ---------------------------------------


    POTLOK:  cpu time    0.0123: real time    0.0123
    SETDIJ:  cpu time    0.0020: real time    0.0020
     EDDAV:  cpu time    1.3560: real time    1.3565
       DOS:  cpu time    0.0012: real time    0.0012
    CHARGE:  cpu time    0.0427: real time    0.0427
    MIXING:  cpu time    0.0004: real time    0.0004
    --------------------------------------------
      LOOP:  cpu time    1.4146: real time    1.4151

 eigenvalue-minimisations  :  7440
 total energy-change (2. order) : 0.1383257E-02  (-0.3683821E-03)
 number of electron      36.0000000 magnetization 
 augmentation part       -1.7251764 magnetization 

 DIPCOR: dipole corrections for dipol
 direction  3 min pos     1,
 dipolmoment           0.000000      0.000000      0.160275 electrons x Angstroem
 Tr[quadrupol]      -126.114970

 energy correction for charged system         0.000000 eV
 dipol+quadrupol energy correction           -0.005839 eV
 added-field ion interaction          0.000001 eV  (added to PSCEN)


 Broyden mixing:
  rms(total) = 0.47561E-01    rms(broyden)= 0.47561E-01
  rms(prec ) = 0.49108E-01
  weight for this iteration     100.00

 eigenvalues of (default mixing * dielectric matrix)
  average eigenvalue GAMMA=   1.3155
  2.3677  2.3677  1.0439  0.6117  0.7510  0.7510

 Free energy of the ion-electron system (eV)
  ---------------------------------------------------
  alpha Z        PSCENC =        26.02036002
  Ewald energy   TEWEN  =      4164.81021819
  -Hartree energ DENC   =     -5503.69687666
  -exchange      EXHF   =         0.00000000
  -V(xc)+E(xc)   XCENC  =      -151.37308533
  PAW double counting   =      2976.87808871    -2754.11135193
  entropy T*S    EENTRO =        -0.00000000
  eigenvalues    EBANDS =      -233.17120795
  atomic energy  EATOM  =      1435.22174307
  Solvation  Ediel_sol  =         0.00000000
  ---------------------------------------------------
  free energy    TOTEN  =       -39.42211189 eV

  energy without entropy =      -39.42211189  energy(sigma->0) =      -39.42211189


--------------------------------------------------------------------------------------------------------




--------------------------------------- Iteration      1(  12)  ---------------------------------------


    POTLOK:  cpu time    0.0124: real time    0.0124
    SETDIJ:  cpu time    0.0020: real time    0.0020
     EDDAV:  cpu time    1.3121: real time    1.3126
       DOS:  cpu time    0.0011: real time    0.0011
    CHARGE:  cpu time    0.0427: real time    0.0427
    MIXING:  cpu time    0.0005: real time    0.0005
    --------------------------------------------
      LOOP:  cpu time    1.3707: real time    1.3712

 eigenvalue-minimisations  :  7080
 total energy-change (2. order) : 0.8922244E-03  (-0.3323467E-03)
 number of electron      36.0000000 magnetization 
 augmentation part       -1.7287573 magnetization 

 DIPCOR: dipole corrections for dipol
 direction  3 min pos     1,
 dipolmoment           0.000000      0.000000      0.165234 electrons x Angstroem
 Tr[quadrupol]      -126.180819

 energy correction for charged system         0.000000 eV
 dipol+quadrupol energy correction           -0.006206 eV
 added-field ion interaction          0.000001 eV  (added to PSCEN)


 Broyden mixing:
  rms(total) = 0.14223E-01    rms(broyden)= 0.14223E-01
  rms(prec ) = 0.15907E-01
  weight for this iteration     100.00

 eigenvalues of (default mixing * dielectric matrix)
  average eigenvalue GAMMA=   1.2849
  2.2583  2.2583  1.4212  0.9827  0.6600  0.6600  0.7536

 Free energy of the ion-electron system (eV)
  ---------------------------------------------------
  alpha Z        PSCENC =        26.01999315
  Ewald energy   TEWEN  =      4164.81021819
  -Hartree energ DENC   =     -5505.16414363
  -exchange      EXHF   =         0.00000000
  -V(xc)+E(xc)   XCENC  =      -151.35032048
  PAW double counting   =      2975.98863865    -2753.23434099
  entropy T*S    EENTRO =        -0.00000000
  eigenvalues    EBANDS =      -231.71300763
  atomic energy  EATOM  =      1435.22174307
  Solvation  Ediel_sol  =         0.00000000
  ---------------------------------------------------
  free energy    TOTEN  =       -39.42121966 eV

  energy without entropy =      -39.42121966  energy(sigma->0) =      -39.42121966


--------------------------------------------------------------------------------------------------------




--------------------------------------- Iteration      1(  13)  ---------------------------------------


    POTLOK:  cpu time    0.0122: real time    0.0122
    SETDIJ:  cpu time    0.0020: real time    0.0020
     EDDAV:  cpu time    1.2713: real time    1.2716
       DOS:  cpu time    0.0011: real time    0.0011
    CHARGE:  cpu time    0.0428: real time    0.0428
    MIXING:  cpu time    0.0005: real time    0.0005
    --------------------------------------------
      LOOP:  cpu time    1.3299: real time    1.3303

 eigenvalue-minimisations  :  6752
 total energy-change (2. order) : 0.1660992E-03  (-0.1590272E-03)
 number of electron      36.0000000 magnetization 
 augmentation part       -1.7190236 magnetization 

 DIPCOR: dipole corrections for dipol
 direction  3 min pos     1,
 dipolmoment           0.000000      0.000000      0.164018 electrons x Angstroem
 Tr[quadrupol]      -126.215087

 energy correction for charged system         0.000000 eV
 dipol+quadrupol energy correction           -0.006115 eV
 added-field ion interaction          0.000001 eV  (added to PSCEN)


 Broyden mixing:
  rms(total) = 0.97506E-02    rms(broyden)= 0.97506E-02
  rms(prec ) = 0.10968E-01
  weight for this iteration     100.00

 eigenvalues of (default mixing * dielectric matrix)
  average eigenvalue GAMMA=   1.2871
  2.4695  2.4695  1.5952  1.1865  0.6837  0.6837  0.6554  0.5533

 Free energy of the ion-electron system (eV)
  ---------------------------------------------------
  alpha Z        PSCENC =        26.02008413
  Ewald energy   TEWEN  =      4164.81021819
  -Hartree energ DENC   =     -5505.83875233
  -exchange      EXHF   =         0.00000000
  -V(xc)+E(xc)   XCENC  =      -151.33335260
  PAW double counting   =      2977.57571283    -2754.82340152
  entropy T*S    EENTRO =        -0.00000000
  eigenvalues    EBANDS =      -231.05330533
  atomic energy  EATOM  =      1435.22174307
  Solvation  Ediel_sol  =         0.00000000
  ---------------------------------------------------
  free energy    TOTEN  =       -39.42105356 eV

  energy without entropy =      -39.42105356  energy(sigma->0) =      -39.42105356


--------------------------------------------------------------------------------------------------------




--------------------------------------- Iteration      1(  14)  ---------------------------------------


    POTLOK:  cpu time    0.0122: real time    0.0122
    SETDIJ:  cpu time    0.0020: real time    0.0020
     EDDAV:  cpu time    1.2544: real time    1.2547
       DOS:  cpu time    0.0011: real time    0.0011
    CHARGE:  cpu time    0.0427: real time    0.0427
[...]
     12      -4.4921      2.00000
     13      -3.4806      2.00000
     14      -3.4645      2.00000
     15      -2.6982      2.00000
     16      -2.3742      2.00000
     17      -2.1586      2.00000
     18      -1.9765      2.00000
     19       0.0429      0.00000
     20       0.0917      0.00000
     21       0.1424      0.00000
     22       0.2584      0.00000
     23       1.6502      0.00000
     24       1.6694      0.00000

 k-point    96 :       0.4737    0.4545    0.0000
  band No.  band energies     occupation 
      1     -13.7357      2.00000
      2     -13.7215      2.00000
      3     -12.2814      2.00000
      4     -12.2403      2.00000
      5      -7.4459      2.00000
      6      -7.4107      2.00000
      7      -6.2675      2.00000
      8      -6.2528      2.00000
      9      -5.2528      2.00000
     10      -5.2520      2.00000
     11      -4.5399      2.00000
     12      -4.5231      2.00000
     13      -3.4822      2.00000
     14      -3.4786      2.00000
     15      -2.4427      2.00000
     16      -2.2744      2.00000
     17      -2.1379      2.00000
     18      -2.0178      2.00000
     19       0.0590      0.00000
     20       0.0744      0.00000
     21       0.2240      0.00000
     22       0.2714      0.00000
     23       1.6370      0.00000
     24       1.6438      0.00000

 k-point    97 :      -0.4737    0.4545    0.0000
  band No.  band energies     occupation 
      1     -13.7357      2.00000
      2     -13.7215      2.00000
      3     -12.2814      2.00000
      4     -12.2403      2.00000
      5      -7.4459      2.00000
      6      -7.4107      2.00000
      7      -6.2675      2.00000
      8      -6.2528      2.00000
      9      -5.2528      2.00000
     10      -5.2520      2.00000
     11      -4.5399      2.00000
     12      -4.5231      2.00000
     13      -3.4822      2.00000
     14      -3.4786      2.00000
     15      -2.4427      2.00000
     16      -2.2744      2.00000
     17      -2.1379      2.00000
     18      -2.0178      2.00000
     19       0.0590      0.00000
     20       0.0744      0.00000
     21       0.2240      0.00000
     22       0.2714      0.00000
     23       1.6370      0.00000
     24       1.6438      0.00000

 k-point    98 :      -0.4211    0.4545    0.0000
  band No.  band energies     occupation 
      1     -13.7836      2.00000
      2     -13.7413      2.00000
      3     -12.4204      2.00000
      4     -12.3057      2.00000
      5      -7.2936      2.00000
      6      -7.1987      2.00000
      7      -6.2198      2.00000
      8      -6.1739      2.00000
      9      -5.2473      2.00000
     10      -5.2455      2.00000
     11      -4.5477      2.00000
     12      -4.4921      2.00000
     13      -3.4806      2.00000
     14      -3.4645      2.00000
     15      -2.6982      2.00000
     16      -2.3742      2.00000
     17      -2.1586      2.00000
     18      -1.9765      2.00000
     19       0.0429      0.00000
     20       0.0917      0.00000
     21       0.1424      0.00000
     22       0.2584      0.00000
     23       1.6502      0.00000
     24       1.6694      0.00000

 k-point    99 :      -0.3684    0.4545    0.0000
  band No.  band energies     occupation 
      1     -13.8620      2.00000
      2     -13.7920      2.00000
      3     -12.6217      2.00000
      4     -12.4531      2.00000
      5      -6.9974      2.00000
      6      -6.8712      2.00000
      7      -6.1058      2.00000
      8      -6.0218      2.00000
      9      -5.2478      2.00000
     10      -5.2338      2.00000
     11      -4.5680      2.00000
     12      -4.4664      2.00000
     13      -3.4487      2.00000
     14      -3.4147      2.00000
     15      -2.9859      2.00000
     16      -2.6176      2.00000
     17      -2.1395      2.00000
     18      -1.9995      2.00000
     19      -0.0094      0.00000
     20      -0.0008      0.00000
     21       0.1671      0.00000
     22       0.2281      0.00000
     23       1.5504      0.00000
     24       1.5877      0.00000

 k-point   100 :      -0.3158    0.4545    0.0000
  band No.  band energies     occupation 
      1     -13.9644      2.00000
      2     -13.8673      2.00000
      3     -12.8445      2.00000
      4     -12.6428      2.00000
      5      -6.6476      2.00000
      6      -6.5279      2.00000
      7      -5.9137      2.00000
      8      -5.7843      2.00000
      9      -5.2520      2.00000
     10      -5.2309      2.00000
     11      -4.6039      2.00000
     12      -4.4653      2.00000
     13      -3.3592      2.00000
     14      -3.3554      2.00000
     15      -3.2102      2.00000
     16      -2.8598      2.00000
     17      -2.1293      2.00000
     18      -2.0419      2.00000
     19      -0.1275      0.00000
     20      -0.1272      0.00000
     21       0.2334      0.00000
     22       0.2384      0.00000
     23       1.3394      0.00000
     24       1.4071      0.00000

 k-point   101 :      -0.2632    0.4545    0.0000
  band No.  band energies     occupation 
      1     -14.0820      2.00000
      2     -13.9587      2.00000
      3     -13.0576      2.00000
      4     -12.8386      2.00000
      5      -6.3561      2.00000
      6      -6.2677      2.00000
      7      -5.6493      2.00000
      8      -5.5462      2.00000
      9      -5.2445      2.00000
     10      -5.1681      2.00000
     11      -4.6170      2.00000
     12      -4.4739      2.00000
     13      -3.4790      2.00000
     14      -3.2302      2.00000
     15      -3.1494      2.00000
     16      -3.0544      2.00000
     17      -2.0870      2.00000
     18      -2.0592      2.00000
     19      -0.2555      0.00000
     20      -0.2297      0.00000
     21       0.2672      0.00000
     22       0.2999      0.00000
     23       1.1354      0.00000
     24       1.1759      0.00000

 k-point   102 :      -0.2105    0.4545    0.0000
  band No.  band energies     occupation 
      1     -14.2030      2.00000
      2     -14.0557      2.00000
      3     -13.2415      2.00000
      4     -13.0162      2.00000
      5      -6.1834      2.00000
      6      -6.1355      2.00000
      7      -5.4816      2.00000
      8      -5.4728      2.00000
      9      -5.1725      2.00000
     10      -4.8633      2.00000
     11      -4.5824      2.00000
     12      -4.4602      2.00000
     13      -3.5103      2.00000
     14      -3.1994      2.00000
     15      -3.0782      2.00000
     16      -3.0685      2.00000
     17      -2.0323      2.00000
     18      -2.0031      2.00000
     19      -0.3325      0.00000
     20      -0.2702      0.00000
     21       0.2952      0.00000
     22       0.3647      0.00000
     23       0.9717      0.00000
     24       0.9880      0.00000

 k-point   103 :      -0.1579    0.4545    0.0000
  band No.  band energies     occupation 
      1     -14.3147      2.00000
      2     -14.1470      2.00000
      3     -13.3872      2.00000
      4     -13.1613      2.00000
      5      -6.1327      2.00000
      6      -6.1268      2.00000
      7      -5.4780      2.00000
      8      -5.4352      2.00000
      9      -4.9747      2.00000
     10      -4.5701      2.00000
     11      -4.5239      2.00000
     12      -4.4026      2.00000
     13      -3.3508      2.00000
     14      -3.2199      2.00000
     15      -3.0645      2.00000
     16      -2.9848      2.00000
     17      -1.9972      2.00000
     18      -1.9217      2.00000
     19      -0.3228      0.00000
     20      -0.2260      0.00000
     21       0.3306      0.00000
     22       0.4467      0.00000
     23       0.8551      0.00000
     24       0.9400      0.00000

 k-point   104 :      -0.1053    0.4545    0.0000
  band No.  band energies     occupation 
      1     -14.4046      2.00000
      2     -14.2214      2.00000
      3     -13.4915      2.00000
      4     -13.2673      2.00000
      5      -6.1966      2.00000
      6      -6.1499      2.00000
      7      -5.4915      2.00000
      8      -5.3756      2.00000
      9      -4.8587      2.00000
     10      -4.4295      2.00000
     11      -4.4115      2.00000
     12      -4.2810      2.00000
     13      -3.1945      2.00000
     14      -3.1790      2.00000
     15      -3.0277      2.00000
     16      -2.8857      2.00000
     17      -2.0213      2.00000
     18      -1.9046      2.00000
     19      -0.2464      0.00000
     20      -0.1307      0.00000
     21       0.3967      0.00000
     22       0.5643      0.00000
     23       0.8661      0.00000
     24       1.0073      0.00000

 k-point   105 :      -0.0526    0.4545    0.0000
  band No.  band energies     occupation 
      1     -14.4626      2.00000
      2     -14.2700      2.00000
      3     -13.5538      2.00000
      4     -13.3313      2.00000
      5      -6.2576      2.00000
      6      -6.1920      2.00000
      7      -5.4935      2.00000
      8      -5.3348      2.00000
      9      -4.8352      2.00000
     10      -4.3874      2.00000
     11      -4.2524      2.00000
     12      -4.1565      2.00000
     13      -3.2741      2.00000
     14      -3.1978      2.00000
     15      -2.7647      2.00000
     16      -2.7596      2.00000
     17      -2.1214      2.00000
     18      -1.9502      2.00000
     19      -0.1764      0.00000
     20      -0.0589      0.00000
     21       0.4881      0.00000
     22       0.6872      0.00000
     23       0.9645      0.00000
     24       1.1304      0.00000


--------------------------------------------------------------------------------------------------------


 soft charge-density along one line, spin component           1
         0         1         2         3         4         5         6         7         8         9
 total charge-density along one line
 
 pseudopotential strength for first ion, spin component:           1
 -9.507   0.000   0.000  -0.002  -0.000  -9.698   0.000   0.000
  0.000  -9.516   0.000  -0.000  -0.002   0.000  -9.706   0.000
  0.000   0.000  -9.504   0.000  -0.001   0.000   0.000  -9.694
 -0.002  -0.000   0.000  -9.515   0.000  -0.002  -0.000   0.000
 -0.000  -0.002  -0.001   0.000  -9.508  -0.000  -0.002  -0.001
 -9.698   0.000   0.000  -0.002  -0.000  -9.878   0.000   0.000
  0.000  -9.706   0.000  -0.000  -0.002   0.000  -9.886   0.000
  0.000   0.000  -9.694   0.000  -0.001   0.000   0.000  -9.874
 -0.002  -0.000   0.000  -9.705   0.000  -0.002  -0.000   0.000
 -0.000  -0.002  -0.001   0.000  -9.698  -0.000  -0.002  -0.001
  0.000   0.000   0.000  -0.000  -0.000   0.000   0.000   0.000
  0.000   0.000   0.001  -0.000  -0.001   0.000   0.000   0.001
 -0.000  -0.029  -0.000   0.000   0.007  -0.000  -0.029  -0.000
  0.000   0.000  -0.030  -0.000   0.000   0.000   0.000  -0.030
  0.007   0.000   0.000  -0.029  -0.000   0.007   0.000   0.000
 -0.000  -0.036  -0.000   0.000   0.007  -0.000  -0.036  -0.000
  0.000   0.000  -0.037  -0.000   0.000   0.000   0.000  -0.038
  0.008   0.000   0.000  -0.035  -0.000   0.008   0.000   0.000
 total augmentation occupancy for first ion, spin component:           1
  2.096  -0.000  -0.000   0.431  -0.000  -2.471   0.000   0.000  -0.614   0.000  -0.000   0.000   0.000  -0.000  -0.323  -0.000
 -0.000   3.156  -0.001   0.000   0.428   0.000  -4.114   0.001  -0.000  -0.610  -0.002   0.000  -0.146  -0.003  -0.000   0.028
 -0.000  -0.001   1.533   0.000  -0.001   0.000   0.001  -1.715  -0.000   0.001  -0.097   0.017  -0.000   0.166   0.000   0.000
  0.431   0.000   0.000   3.159   0.000  -0.614  -0.000  -0.000  -4.115  -0.000  -0.000   0.000  -0.000   0.000  -0.146   0.000
 -0.000   0.428  -0.001   0.000   2.088   0.000  -0.609   0.001  -0.000  -2.465  -0.001   0.000  -0.320  -0.000  -0.000   0.048
 -2.471   0.000   0.000  -0.614   0.000   3.758  -0.000  -0.000   0.765  -0.000   0.000  -0.000  -0.000   0.000   0.394   0.000
  0.000  -4.114   0.001  -0.000  -0.609  -0.000   5.929  -0.001   0.000   0.758   0.002  -0.000   0.165   0.004   0.000  -0.039
  0.000   0.001  -1.715  -0.000   0.001  -0.000  -0.001   2.835   0.000  -0.002   0.226  -0.019   0.001  -0.140  -0.000  -0.000
 -0.614  -0.000  -0.000  -4.115  -0.000   0.765   0.000   0.000   5.930   0.000   0.000  -0.000   0.000  -0.000   0.165  -0.000
  0.000  -0.610   0.001  -0.000  -2.465  -0.000   0.758  -0.002   0.000   3.754   0.002  -0.000   0.390  -0.000   0.000  -0.053
 -0.000  -0.002  -0.097  -0.000  -0.001   0.000   0.002   0.226   0.000   0.002   1.550  -0.099   0.001   0.044  -0.000  -0.000
  0.000   0.000   0.017   0.000   0.000  -0.000  -0.000  -0.019  -0.000  -0.000  -0.099   0.008  -0.000  -0.001   0.000   0.000
  0.000  -0.146  -0.000  -0.000  -0.320  -0.000   0.165   0.001   0.000   0.390   0.001  -0.000   0.287   0.000   0.000  -0.036
 -0.000  -0.003   0.166   0.000  -0.000   0.000   0.004  -0.140  -0.000  -0.000   0.044  -0.001   0.000   0.354   0.000  -0.000
 -0.323  -0.000   0.000  -0.146  -0.000   0.394   0.000  -0.000   0.165   0.000  -0.000   0.000   0.000   0.000   0.288   0.000
 -0.000   0.028   0.000   0.000   0.048   0.000  -0.039  -0.000  -0.000  -0.053  -0.000   0.000  -0.036  -0.000   0.000   0.005
  0.000   0.000  -0.018  -0.000   0.000  -0.000  -0.001   0.007   0.000   0.000  -0.010   0.000  -0.000  -0.043   0.000   0.000
  0.048   0.000  -0.000   0.028  -0.000  -0.054  -0.000  -0.000  -0.039   0.000   0.000  -0.000   0.000  -0.000  -0.036  -0.000


------------------------ aborting loop because EDIFF is reached ----------------------------------------


    CHARGE:  cpu time    0.0420: real time    0.0420
    FORLOC:  cpu time    0.0003: real time    0.0003
    FORNL :  cpu time    0.0634: real time    0.0634
    STRESS:  cpu time    0.3222: real time    0.3223
    FORCOR:  cpu time    0.0138: real time    0.0138
    FORHAR:  cpu time    0.0024: real time    0.0024
    MIXING:  cpu time    0.0002: real time    0.0002
    OFIELD:  cpu time    0.0000: real time    0.0000

  FORCE on cell =-STRESS in cart. coord.  units (eV):
  Direction    XX          YY          ZZ          XY          YZ          ZX
  --------------------------------------------------------------------------------------
  Alpha Z    26.02620    26.02620    26.02620
  Ewald    5241.62181  5240.85915 -6314.95655     0.00000     0.16137     0.00000
  Hartree  5449.91230  5449.63084 -5388.30106     0.00000     0.06404     0.00000
  E(xc)    -145.36944  -145.35099  -147.15370     0.00000     0.00117    -0.00000
  Local  -11247.53130-11246.49760 11134.90539    -0.00000    -0.23304    -0.00000
  n-local   323.72750   323.78689   338.81145    -0.00000     0.01306     0.00000
  augment   -67.60599   -67.63201   -71.24925     0.00000    -0.00432    -0.00000
  Kinetic   419.15491   418.81534   421.90911    -0.00000    -0.00268     0.00000
  Fock        0.00000     0.00000     0.00000     0.00000     0.00000     0.00000
  -------------------------------------------------------------------------------------
  Total      -0.06401    -0.36217    -0.00841     0.00000    -0.00040     0.00000
  in kB      -0.25762    -1.45772    -0.03385     0.00000    -0.00161     0.00000
  external pressure =       -0.58 kB  Pullay stress =        0.00 kB


 VOLUME and BASIS-vectors are now :
 -----------------------------------------------------------------------------
  energy-cutoff  :      600.00
  volume of cell :      398.06
      direct lattice vectors                 reciprocal lattice vectors
     3.363599539  0.000000000  0.000000000     0.297300552  0.000000000  0.000000000
     0.000000000  5.843403604  0.000000000     0.000000000  0.171133139  0.000000000
     0.000000000  0.000000000 20.252588272     0.000000000  0.000000000  0.049376405

  length of vectors
     3.363599539  5.843403604 20.252588272     0.297300552  0.171133139  0.049376405


 FORCES acting on ions
    electron-ion (+dipol)            ewald-force                    non-local-force                 convergence-correction
 -----------------------------------------------------------------------------------------------
   -.654E-07 0.261E+00 -.404E+01   0.625E-07 -.259E+00 0.637E+01   -.176E-07 -.152E-02 -.232E+01   0.333E-08 0.533E-04 -.317E-03
   0.233E-06 0.261E+00 -.404E+01   -.214E-06 -.259E+00 0.637E+01   0.127E-07 -.151E-02 -.232E+01   -.377E-08 -.886E-04 -.367E-03
   -.356E-06 -.174E+00 -.465E+03   0.387E-06 0.170E+00 0.470E+03   0.768E-07 0.495E-02 -.558E+01   0.504E-08 -.125E-02 -.645E-03
   0.130E-08 -.176E+00 -.465E+03   0.520E-08 0.170E+00 0.470E+03   0.742E-08 0.478E-02 -.558E+01   0.288E-09 0.121E-02 0.717E-04
   0.283E-06 -.889E-01 0.472E+03   -.285E-06 0.891E-01 -.477E+03   -.950E-07 0.820E-03 0.460E+01   -.909E-09 -.857E-03 0.224E-03
   -.384E-07 -.909E-01 0.472E+03   0.445E-07 0.894E-01 -.477E+03   -.264E-07 0.783E-03 0.460E+01   0.608E-09 0.855E-03 -.350E-03
 -----------------------------------------------------------------------------------------------
   0.580E-07 -.789E-02 0.661E+01   0.971E-14 -.291E-15 -.568E-13   -.422E-07 0.831E-02 -.661E+01   0.458E-08 -.735E-04 -.138E-02
 
 
 POSITION                                       TOTAL-FORCE (eV/Angst)
 -----------------------------------------------------------------------------------
      1.68180      0.97311     10.26876        -0.000000     -0.000035      0.000115
     -0.00000      3.89481     10.26876         0.000000     -0.000051      0.000218
      1.68180      4.86995     11.74005         0.000000     -0.000052     -0.000093
     -0.00000      1.94825     11.74005         0.000000     -0.000096     -0.000154
      1.68180      4.86985      8.37007        -0.000000      0.000161     -0.000070
     -0.00000      1.94815      8.37007        -0.000000      0.000074     -0.000016
 -----------------------------------------------------------------------------------
    total drift:                                0.000000      0.000341     -0.000784


--------------------------------------------------------------------------------------------------------



  FREE ENERGIE OF THE ION-ELECTRON SYSTEM (eV)
  ---------------------------------------------------
  free  energy   TOTEN  =       -39.42199552 eV

  energy  without entropy=      -39.42199552  energy(sigma->0) =      -39.42199552
 
 d Force = 0.4363407E-07[-0.145E-07, 0.102E-06]  d Energy = 0.7114522E-07-0.275E-07
 d Force = 0.1835103E-01[ 0.184E-01, 0.184E-01]  d Ewald  = 0.1835103E-01-0.900E-10


--------------------------------------------------------------------------------------------------------


    POTLOK:  cpu time    0.0142: real time    0.0142


--------------------------------------------------------------------------------------------------------




--------------------------------------------------------------------------------------------------------


  
 reached required accuracy - stopping structural energy minimisation
     LOOP+:  cpu time    2.8520: real time    2.9142
    4ORBIT:  cpu time    0.0000: real time    0.0000

 total amount of memory used by VASP MPI-rank0    62433. kBytes
=======================================================================

   base      :      30000. kBytes
   nonl-proj :      25455. kBytes
   fftplans  :       1397. kBytes
   grid      :       2623. kBytes
   one-center:         15. kBytes
   wavefun   :       2943. kBytes
 
  
  
 General timing and accounting informations for this job:
 ========================================================
  
                  Total CPU time used (sec):       76.172
                            User time (sec):       73.137
                          System time (sec):        3.034
                         Elapsed time (sec):       76.711
  
                   Maximum memory used (kb):      175168.
                   Average memory used (kb):           0.
  
                          Minor page faults:        25020
                          Major page faults:         1057
                 Voluntary context switches:         1800
