 vasp.5.4.4.18Apr17-6-g9f103f2a35 (build Oct 01 2024 10:11:53) complex          
  
 executed on              Shaheen date 2025.02.19  15:18:42
 running on  192 total cores
 distrk:  each k-point on  192 cores,    1 groups
 distr:  one band on NCORES_PER_BAND=  24 cores,    8 groups


--------------------------------------------------------------------------------------------------------


 INCAR:
 POTCAR:    PAW_PBE Mo 08Apr2002                  
 POTCAR:    PAW_PBE S 06Sep2000                   
 POTCAR:    PAW_PBE Te 08Apr2002                  
 POTCAR:    PAW_PBE Mo 08Apr2002                  
   VRHFIN =Mo: 4p5s4d                                                           
   LEXCH  = PE                                                                  
   EATOM  =   217.5176 eV,   15.9871 Ry                                         
                                                                                
   TITEL  = PAW_PBE Mo 08Apr2002                                                
   LULTRA =        F    use ultrasoft PP ?                                      
   IUNSCR =        1    unscreen: 0-lin 1-nonlin 2-no                           
   RPACOR =    2.200    partial core radius                                     
   POMASS =   95.940; ZVAL   =    6.000    mass and valenz                      
   RCORE  =    2.750    outmost cutoff radius                                   
   RWIGS  =    2.750; RWIGS  =    1.455    wigner-seitz radius (au A)           
   ENMAX  =  224.584; ENMIN  =  168.438 eV                                      
   RCLOC  =    2.111    cutoff for local pot                                    
   LCOR   =        T    correct aug charges                                     
   LPAW   =        T    paw PP                                                  
   EAUG   =  345.278                                                            
   DEXC   =    0.000                                                            
   RMAX   =    2.821    core radius for proj-oper                               
   RAUG   =    1.300    factor for augmentation sphere                          
   RDEP   =    2.815    radius for radial grids                                 
   RDEPT  =    2.211    core radius for aug-charge                              
                                                                                
   Atomic configuration                                                         
   12 entries                                                                   
     n  l   j            E        occ.                                          
     1  0  0.50    -19819.0341   2.0000                                         
     2  0  0.50     -2799.0127   2.0000                                         
     2  1  1.50     -2502.0276   6.0000                                         
     3  0  0.50      -476.4448   2.0000                                         
     3  1  1.50      -379.1496   6.0000                                         
     3  2  2.50      -220.9367  10.0000                                         
     4  0  0.50       -64.3378   2.0000                                         
     4  1  1.50       -38.4773   6.0000                                         
     4  2  2.50        -3.7535   5.0000                                         
     5  0  0.50        -4.0862   1.0000                                         
     5  1  0.50        -2.7701   0.0000                                         
     4  3  2.50        -1.3606   0.0000                                         
   Description                                                                  
     l       E           TYP  RCUT    TYP  RCUT                                 
     2     -3.7534765     23  2.500                                             
     2     -5.1140591     23  2.500                                             
     0     -4.0861560     23  2.600                                             
     0     13.6058260     23  2.600                                             
     1      5.4423304     23  2.750                                             
     1     27.2116520     23  2.750                                             
  local pseudopotential read in
  partial core-charges read in
  partial kinetic energy density read in
  atomic valenz-charges read in
  non local Contribution for L=           2  read in
    real space projection operators read in
  non local Contribution for L=           2  read in
    real space projection operators read in
  non local Contribution for L=           0  read in
    real space projection operators read in
  non local Contribution for L=           0  read in
    real space projection operators read in
  non local Contribution for L=           1  read in
    real space projection operators read in
  non local Contribution for L=           1  read in
    real space projection operators read in
    PAW grid and wavefunctions read in
 
   number of l-projection  operators is LMAX  =           6
   number of lm-projection operators is LMMAX =          18
 
 POTCAR:    PAW_PBE S 06Sep2000                   
   VRHFIN =S : s2p4                                                             
   LEXCH  = PE                                                                  
   EATOM  =   276.8230 eV,   20.3459 Ry                                         
                                                                                
   TITEL  = PAW_PBE S 06Sep2000                                                 
   LULTRA =        F    use ultrasoft PP ?                                      
   IUNSCR =        1    unscreen: 0-lin 1-nonlin 2-no                           
   RPACOR =    1.500    partial core radius                                     
   POMASS =   32.066; ZVAL   =    6.000    mass and valenz                      
   RCORE  =    1.900    outmost cutoff radius                                   
   RWIGS  =    2.200; RWIGS  =    1.164    wigner-seitz radius (au A)           
   ENMAX  =  258.689; ENMIN  =  194.016 eV                                      
   ICORE  =        2    local potential                                         
   LCOR   =        T    correct aug charges                                     
   LPAW   =        T    paw PP                                                  
   EAUG   =  335.092                                                            
   DEXC   =    0.000                                                            
   RMAX   =    1.942    core radius for proj-oper                               
   RAUG   =    1.300    factor for augmentation sphere                          
   RDEP   =    1.954    radius for radial grids                                 
   RDEPT  =    1.744    core radius for aug-charge                              
                                                                                
   Atomic configuration                                                         
    6 entries                                                                   
     n  l   j            E        occ.                                          
     1  0  0.50     -2405.8406   2.0000                                         
     2  0  0.50      -211.7007   2.0000                                         
     2  1  1.50      -156.4958   6.0000                                         
     3  0  0.50       -17.2562   2.0000                                         
     3  1  0.50        -7.0085   4.0000                                         
     3  2  1.50        -6.8029   0.0000                                         
   Description                                                                  
     l       E           TYP  RCUT    TYP  RCUT                                 
     0    -17.2561641     23  1.900                                             
     0    -15.8743224     23  1.900                                             
     1     -7.0085400     23  1.900                                             
     1     -2.7779785     23  1.900                                             
     2     -6.8029130     23  1.900                                             
  local pseudopotential read in
  partial core-charges read in
  partial kinetic energy density read in
  atomic valenz-charges read in
  non local Contribution for L=           0  read in
    real space projection operators read in
  non local Contribution for L=           0  read in
    real space projection operators read in
  non local Contribution for L=           1  read in
    real space projection operators read in
  non local Contribution for L=           1  read in
    real space projection operators read in
    PAW grid and wavefunctions read in
 
   number of l-projection  operators is LMAX  =           4
   number of lm-projection operators is LMMAX =           8
 
 POTCAR:    PAW_PBE Te 08Apr2002                  
   VRHFIN =Te: s2p4                                                             
   LEXCH  = PE                                                                  
   EATOM  =   223.2721 eV,   16.4100 Ry                                         
                                                                                
   TITEL  = PAW_PBE Te 08Apr2002                                                
   LULTRA =        F    use ultrasoft PP ?                                      
   IUNSCR =        1    unscreen: 0-lin 1-nonlin 2-no                           
   RPACOR =    2.200    partial core radius                                     
   POMASS =  127.600; ZVAL   =    6.000    mass and valenz                      
   RCORE  =    2.300    outmost cutoff radius                                   
   RWIGS  =    2.900; RWIGS  =    1.535    wigner-seitz radius (au A)           
   ENMAX  =  174.982; ENMIN  =  131.236 eV                                      
   ICORE  =        3    local potential                                         
   LCOR   =        T    correct aug charges                                     
   LPAW   =        T    paw PP                                                  
   EAUG   =  368.792                                                            
   DEXC   =    0.000                                                            
   RMAX   =    2.345    core radius for proj-oper                               
   RAUG   =    1.300    factor for augmentation sphere                          
   RDEP   =    2.397    radius for radial grids                                 
   RDEPT  =    2.174    core radius for aug-charge                              
                                                                                
   Atomic configuration                                                         
   13 entries                                                                   
     n  l   j            E        occ.                                          
     1  0  0.50    -31621.2075   2.0000                                         
     2  0  0.50     -4848.7941   2.0000                                         
     2  1  1.50     -4352.1960   6.0000                                         
     3  0  0.50      -964.9612   2.0000                                         
     3  1  1.50      -803.6179   6.0000                                         
     3  2  2.50      -559.8710  10.0000                                         
     4  0  0.50      -164.3522   2.0000                                         
     4  1  1.50      -114.3756   6.0000                                         
     4  2  2.50       -41.6483  10.0000                                         
     5  0  0.50       -15.1072   2.0000                                         
     5  1  0.50        -5.9526   4.0000                                         
     5  2  1.50        -5.4423   0.0000                                         
     4  3  2.50        -5.4423   0.0000                                         
   Description                                                                  
     l       E           TYP  RCUT    TYP  RCUT                                 
     0    -15.1072389     23  2.300                                             
     0    -16.4678215     23  2.300                                             
     1     -5.9526306     23  2.300                                             
     1     -2.4873968     23  2.300                                             
     2     -5.4423304     23  2.300                                             
     3     -1.3605826     23  2.300                                             
  local pseudopotential read in
  partial core-charges read in
  partial kinetic energy density read in
  atomic valenz-charges read in
  non local Contribution for L=           0  read in
    real space projection operators read in
  non local Contribution for L=           0  read in
    real space projection operators read in
  non local Contribution for L=           1  read in
    real space projection operators read in
  non local Contribution for L=           1  read in
    real space projection operators read in
  non local Contribution for L=           2  read in
    real space projection operators read in
    PAW grid and wavefunctions read in
 
   number of l-projection  operators is LMAX  =           5
   number of lm-projection operators is LMMAX =          13
 
  PAW_PBE Mo 08Apr2002                  :
 energy of atom  1       EATOM= -217.5176
 kinetic energy error for atom=    0.0005 (will be added to EATOM!!)
  PAW_PBE S 06Sep2000                   :
 energy of atom  2       EATOM= -276.8230
 kinetic energy error for atom=    0.0009 (will be added to EATOM!!)
  PAW_PBE Te 08Apr2002                  :
 energy of atom  3       EATOM= -223.2721
 kinetic energy error for atom=    0.0004 (will be added to EATOM!!)
 
 
 POSCAR: Generated by VASPKIT code               
  positions in direct lattice
  velocities in cartesian coordinates
 exchange correlation table for  LEXCH =        8
   RHO(1)=    0.500       N(1)  =     2000
   RHO(2)=  100.500       N(2)  =     4000
 


--------------------------------------------------------------------------------------------------------


 ion  position               nearest neighbor table
   1  0.500  0.167  0.507-   4 2.44   4 2.44   3 2.44   6 2.72   6 2.72   5 2.72   2 3.37   2 3.37
                             2 3.37   2 3.37
   2  0.000  0.667  0.507-   3 2.44   3 2.44   4 2.44   5 2.72   5 2.72   6 2.72   1 3.37   1 3.37
                             1 3.37   1 3.37
   3  0.500  0.833  0.580-   2 2.44   2 2.44   1 2.44
   4  0.000  0.333  0.580-   1 2.44   1 2.44   2 2.44
   5  0.500  0.833  0.413-   2 2.72   2 2.72   1 2.72   6 3.37   6 3.37   6 3.37   6 3.37
   6  0.000  0.333  0.413-   1 2.72   1 2.72   2 2.72   5 3.37   5 3.37   5 3.37   5 3.37
 

IMPORTANT INFORMATION: All symmetrisations will be switched off!
NOSYMM: (Re-)initialisation of all symmetry stuff for point group C_1.

 
 
 KPOINTS: K-Spacing Value to Generate K-Mesh: 0.01

Automatic generation of k-mesh.
Space group operators:
 irot       det(A)        alpha          n_x          n_y          n_z        tau_x        tau_y        tau_z
    1     1.000000     0.000001     1.000000     0.000000     0.000000     0.000000     0.000000     0.000000
 
 Subroutine IBZKPT returns following result:
 ===========================================
 
 Found    105 irreducible k-points:
 
 Following reciprocal coordinates:
            Coordinates               Weight
  0.000000  0.000000  0.000000      1.000000
  0.052632  0.000000  0.000000      2.000000
  0.105263  0.000000  0.000000      2.000000
  0.157895  0.000000  0.000000      2.000000
  0.210526  0.000000  0.000000      2.000000
  0.263158  0.000000  0.000000      2.000000
  0.315789  0.000000  0.000000      2.000000
  0.368421  0.000000  0.000000      2.000000
  0.421053  0.000000  0.000000      2.000000
  0.473684  0.000000  0.000000      2.000000
  0.000000  0.090909  0.000000      2.000000
  0.052632  0.090909  0.000000      2.000000
  0.105263  0.090909  0.000000      2.000000
  0.157895  0.090909  0.000000      2.000000
  0.210526  0.090909  0.000000      2.000000
  0.263158  0.090909  0.000000      2.000000
  0.315789  0.090909  0.000000      2.000000
  0.368421  0.090909  0.000000      2.000000
  0.421053  0.090909  0.000000      2.000000
  0.473684  0.090909  0.000000      2.000000
 -0.473684  0.090909  0.000000      2.000000
 -0.421053  0.090909  0.000000      2.000000
 -0.368421  0.090909  0.000000      2.000000
 -0.315789  0.090909  0.000000      2.000000
 -0.263158  0.090909  0.000000      2.000000
 -0.210526  0.090909  0.000000      2.000000
 -0.157895  0.090909  0.000000      2.000000
 -0.105263  0.090909  0.000000      2.000000
 -0.052632  0.090909  0.000000      2.000000
  0.000000  0.181818  0.000000      2.000000
  0.052632  0.181818  0.000000      2.000000
  0.105263  0.181818  0.000000      2.000000
  0.157895  0.181818  0.000000      2.000000
  0.210526  0.181818  0.000000      2.000000
  0.263158  0.181818  0.000000      2.000000
  0.315789  0.181818  0.000000      2.000000
  0.368421  0.181818  0.000000      2.000000
  0.421053  0.181818  0.000000      2.000000
  0.473684  0.181818  0.000000      2.000000
 -0.473684  0.181818  0.000000      2.000000
 -0.421053  0.181818  0.000000      2.000000
 -0.368421  0.181818  0.000000      2.000000
 -0.315789  0.181818  0.000000      2.000000
 -0.263158  0.181818  0.000000      2.000000
 -0.210526  0.181818  0.000000      2.000000
 -0.157895  0.181818  0.000000      2.000000
 -0.105263  0.181818  0.000000      2.000000
 -0.052632  0.181818  0.000000      2.000000
  0.000000  0.272727  0.000000      2.000000
  0.052632  0.272727  0.000000      2.000000
  0.105263  0.272727  0.000000      2.000000
  0.157895  0.272727  0.000000      2.000000
  0.210526  0.272727  0.000000      2.000000
  0.263158  0.272727  0.000000      2.000000
  0.315789  0.272727  0.000000      2.000000
  0.368421  0.272727  0.000000      2.000000
  0.421053  0.272727  0.000000      2.000000
  0.473684  0.272727  0.000000      2.000000
 -0.473684  0.272727  0.000000      2.000000
 -0.421053  0.272727  0.000000      2.000000
 -0.368421  0.272727  0.000000      2.000000
 -0.315789  0.272727  0.000000      2.000000
 -0.263158  0.272727  0.000000      2.000000
 -0.210526  0.272727  0.000000      2.000000
 -0.157895  0.272727  0.000000      2.000000
 -0.105263  0.272727  0.000000      2.000000
 -0.052632  0.272727  0.000000      2.000000
  0.000000  0.363636  0.000000      2.000000
  0.052632  0.363636  0.000000      2.000000
  0.105263  0.363636  0.000000      2.000000
  0.157895  0.363636  0.000000      2.000000
  0.210526  0.363636  0.000000      2.000000
  0.263158  0.363636  0.000000      2.000000
  0.315789  0.363636  0.000000      2.000000
  0.368421  0.363636  0.000000      2.000000
  0.421053  0.363636  0.000000      2.000000
  0.473684  0.363636  0.000000      2.000000
 -0.473684  0.363636  0.000000      2.000000
 -0.421053  0.363636  0.000000      2.000000
 -0.368421  0.363636  0.000000      2.000000
 -0.315789  0.363636  0.000000      2.000000
 -0.263158  0.363636  0.000000      2.000000
 -0.210526  0.363636  0.000000      2.000000
 -0.157895  0.363636  0.000000      2.000000
 -0.105263  0.363636  0.000000      2.000000
 -0.052632  0.363636  0.000000      2.000000
  0.000000  0.454545  0.000000      2.000000
  0.052632  0.454545  0.000000      2.000000
  0.105263  0.454545  0.000000      2.000000
  0.157895  0.454545  0.000000      2.000000
  0.210526  0.454545  0.000000      2.000000
  0.263158  0.454545  0.000000      2.000000
  0.315789  0.454545  0.000000      2.000000
  0.368421  0.454545  0.000000      2.000000
  0.421053  0.454545  0.000000      2.000000
  0.473684  0.454545  0.000000      2.000000
 -0.473684  0.454545  0.000000      2.000000
 -0.421053  0.454545  0.000000      2.000000
 -0.368421  0.454545  0.000000      2.000000
 -0.315789  0.454545  0.000000      2.000000
 -0.263158  0.454545  0.000000      2.000000
 -0.210526  0.454545  0.000000      2.000000
 -0.157895  0.454545  0.000000      2.000000
 -0.105263  0.454545  0.000000      2.000000
 -0.052632  0.454545  0.000000      2.000000
 
 Following cartesian coordinates:
            Coordinates               Weight
  0.000000  0.000000  0.000000      1.000000
  0.015647  0.000000  0.000000      2.000000
  0.031295  0.000000  0.000000      2.000000
  0.046942  0.000000  0.000000      2.000000
  0.062590  0.000000  0.000000      2.000000
  0.078237  0.000000  0.000000      2.000000
  0.093884  0.000000  0.000000      2.000000
  0.109532  0.000000  0.000000      2.000000
  0.125179  0.000000  0.000000      2.000000
  0.140827  0.000000  0.000000      2.000000
  0.000000  0.015589  0.000000      2.000000
  0.015647  0.015589  0.000000      2.000000
  0.031295  0.015589  0.000000      2.000000
  0.046942  0.015589  0.000000      2.000000
  0.062590  0.015589  0.000000      2.000000
  0.078237  0.015589  0.000000      2.000000
  0.093884  0.015589  0.000000      2.000000
  0.109532  0.015589  0.000000      2.000000
  0.125179  0.015589  0.000000      2.000000
  0.140827  0.015589  0.000000      2.000000
 -0.140827  0.015589  0.000000      2.000000
 -0.125179  0.015589  0.000000      2.000000
 -0.109532  0.015589  0.000000      2.000000
 -0.093884  0.015589  0.000000      2.000000
 -0.078237  0.015589  0.000000      2.000000
 -0.062590  0.015589  0.000000      2.000000
 -0.046942  0.015589  0.000000      2.000000
 -0.031295  0.015589  0.000000      2.000000
 -0.015647  0.015589  0.000000      2.000000
  0.000000  0.031177  0.000000      2.000000
  0.015647  0.031177  0.000000      2.000000
  0.031295  0.031177  0.000000      2.000000
  0.046942  0.031177  0.000000      2.000000
  0.062590  0.031177  0.000000      2.000000
  0.078237  0.031177  0.000000      2.000000
  0.093884  0.031177  0.000000      2.000000
  0.109532  0.031177  0.000000      2.000000
  0.125179  0.031177  0.000000      2.000000
  0.140827  0.031177  0.000000      2.000000
 -0.140827  0.031177  0.000000      2.000000
 -0.125179  0.031177  0.000000      2.000000
 -0.109532  0.031177  0.000000      2.000000
 -0.093884  0.031177  0.000000      2.000000
 -0.078237  0.031177  0.000000      2.000000
 -0.062590  0.031177  0.000000      2.000000
 -0.046942  0.031177  0.000000      2.000000
 -0.031295  0.031177  0.000000      2.000000
 -0.015647  0.031177  0.000000      2.000000
  0.000000  0.046766  0.000000      2.000000
  0.015647  0.046766  0.000000      2.000000
  0.031295  0.046766  0.000000      2.000000
  0.046942  0.046766  0.000000      2.000000
  0.062590  0.046766  0.000000      2.000000
  0.078237  0.046766  0.000000      2.000000
  0.093884  0.046766  0.000000      2.000000
  0.109532  0.046766  0.000000      2.000000
  0.125179  0.046766  0.000000      2.000000
  0.140827  0.046766  0.000000      2.000000
 -0.140827  0.046766  0.000000      2.000000
 -0.125179  0.046766  0.000000      2.000000
 -0.109532  0.046766  0.000000      2.000000
 -0.093884  0.046766  0.000000      2.000000
 -0.078237  0.046766  0.000000      2.000000
 -0.062590  0.046766  0.000000      2.000000
 -0.046942  0.046766  0.000000      2.000000
 -0.031295  0.046766  0.000000      2.000000
 -0.015647  0.046766  0.000000      2.000000
  0.000000  0.062355  0.000000      2.000000
  0.015647  0.062355  0.000000      2.000000
  0.031295  0.062355  0.000000      2.000000
  0.046942  0.062355  0.000000      2.000000
  0.062590  0.062355  0.000000      2.000000
  0.078237  0.062355  0.000000      2.000000
  0.093884  0.062355  0.000000      2.000000
  0.109532  0.062355  0.000000      2.000000
  0.125179  0.062355  0.000000      2.000000
  0.140827  0.062355  0.000000      2.000000
 -0.140827  0.062355  0.000000      2.000000
 -0.125179  0.062355  0.000000      2.000000
 -0.109532  0.062355  0.000000      2.000000
 -0.093884  0.062355  0.000000      2.000000
 -0.078237  0.062355  0.000000      2.000000
 -0.062590  0.062355  0.000000      2.000000
 -0.046942  0.062355  0.000000      2.000000
 -0.031295  0.062355  0.000000      2.000000
 -0.015647  0.062355  0.000000      2.000000
  0.000000  0.077943  0.000000      2.000000
  0.015647  0.077943  0.000000      2.000000
  0.031295  0.077943  0.000000      2.000000
  0.046942  0.077943  0.000000      2.000000
  0.062590  0.077943  0.000000      2.000000
  0.078237  0.077943  0.000000      2.000000
  0.093884  0.077943  0.000000      2.000000
  0.109532  0.077943  0.000000      2.000000
  0.125179  0.077943  0.000000      2.000000
  0.140827  0.077943  0.000000      2.000000
 -0.140827  0.077943  0.000000      2.000000
 -0.125179  0.077943  0.000000      2.000000
 -0.109532  0.077943  0.000000      2.000000
 -0.093884  0.077943  0.000000      2.000000
 -0.078237  0.077943  0.000000      2.000000
 -0.062590  0.077943  0.000000      2.000000
 -0.046942  0.077943  0.000000      2.000000
 -0.031295  0.077943  0.000000      2.000000
 -0.015647  0.077943  0.000000      2.000000
 


--------------------------------------------------------------------------------------------------------




 Dimension of arrays:
   k-points           NKPTS =    105   k-points in BZ     NKDIM =    105   number of bands    NBANDS=     24
   number of dos      NEDOS =    301   number of ions     NIONS =      6
   non local maximal  LDIM  =      6   non local SUM 2l+1 LMDIM =     18
   total plane-waves  NPLWV = 217728
   max r-space proj   IRMAX =      1   max aug-charges    IRDMAX=  35383
   dimension x,y,z NGX =    28 NGY =   48 NGZ =  162
   dimension x,y,z NGXF=    56 NGYF=   96 NGZF=  324
   support grid    NGXF=    56 NGYF=   96 NGZF=  324
   ions per type =               2   2   2
   NGX,Y,Z   is equivalent  to a cutoff of  13.84, 13.68, 13.30 a.u.
   NGXF,Y,Z  is equivalent  to a cutoff of  27.68, 27.37, 26.60 a.u.

 SYSTEM =  unknown system                          
 POSCAR =  Generated by VASPKIT code               

 Startparameter for this run:
   NWRITE =      2    write-flag & timer
   PREC   = accura    normal or accurate (medium, high low for compatibility)
   ISTART =      0    job   : 0-new  1-cont  2-samecut
   ICHARG =      2    charge: 1-file 2-atom 10-const
   ISPIN  =      1    spin polarized calculation?
   LNONCOLLINEAR =      F non collinear calculations
   LSORBIT =      F    spin-orbit coupling
   INIWAV =      1    electr: 0-lowe 1-rand  2-diag
   LASPH  =      F    aspherical Exc in radial PAW
   METAGGA=      F    non-selfconsistent MetaGGA calc.

 Electronic Relaxation 1
   ENCUT  =  600.0 eV  44.10 Ry    6.64 a.u.   6.72 11.65 40.45*2*pi/ulx,y,z
   ENINI  =  600.0     initial cutoff
   ENAUG  =  368.8 eV  augmentation charge cutoff
   NELM   =     60;   NELMIN=  2; NELMDL= -5     # of ELM steps 
   EDIFF  = 0.1E-06   stopping-criterion for ELM
   LREAL  =      F    real-space projection
   NLSPLINE    = F    spline interpolate recip. space projectors
   LCOMPAT=      F    compatible to vasp.4.4
   GGA_COMPAT  = T    GGA compatible to vasp.4.4-vasp.4.6
   LMAXPAW     = -100 max onsite density
   LMAXMIX     =    2 max onsite mixed and CHGCAR
   VOSKOWN=      0    Vosko Wilk Nusair interpolation
   ROPT   =    0.00000   0.00000   0.00000
 Ionic relaxation
   EDIFFG = -.1E-02   stopping-criterion for IOM
   NSW    =    100    number of steps for IOM
   NBLOCK =      1;   KBLOCK =    100    inner block; outer block 
   IBRION =      2    ionic relax: 0-MD 1-quasi-New 2-CG
   NFREE  =      1    steps in history (QN), initial steepest desc. (CG)
   ISIF   =      2    stress and relaxation
   IWAVPR =     11    prediction:  0-non 1-charg 2-wave 3-comb
   ISYM   =      0    0-nonsym 1-usesym 2-fastsym
   LCORR  =      T    Harris-Foulkes like correction to forces

   POTIM  = 0.5000    time-step for ionic-motion
   TEIN   =    0.0    initial temperature
   TEBEG  =    0.0;   TEEND  =   0.0 temperature during run
   SMASS  =  -3.00    Nose mass-parameter (am)
   estimated Nose-frequenzy (Omega)   =  0.10E-29 period in steps =****** mass=  -0.259E-27a.u.
   SCALEE = 1.0000    scale energy and forces
   NPACO  =    256;   APACO  = 16.0  distance and # of slots for P.C.
   PSTRESS=    0.0 pullay stress

  Mass of Ions in am
   POMASS =  95.94 32.07127.60
  Ionic Valenz
   ZVAL   =   6.00  6.00  6.00
  Atomic Wigner-Seitz radii
   RWIGS  =  -1.00 -1.00 -1.00
  virtual crystal weights 
   VCA    =   1.00  1.00  1.00
   NELECT =      36.0000    total number of electrons
   NUPDOWN=      -1.0000    fix difference up-down

 DOS related values:
   EMIN   =  10.00;   EMAX   =-10.00  energy-range for DOS
   EFERMI =   0.00
   ISMEAR =     0;   SIGMA  =   0.10  broadening in eV -4-tet -1-fermi 0-gaus

 Electronic relaxation 2 (details)
   IALGO  =     38    algorithm
   LDIAG  =      T    sub-space diagonalisation (order eigenvalues)
   LSUBROT=      F    optimize rotation matrix (better conditioning)
   TURBO    =      0    0=normal 1=particle mesh
   IRESTART =      0    0=no restart 2=restart with 2 vectors
   NREBOOT  =      0    no. of reboots
   NMIN     =      0    reboot dimension
   EREF     =   0.00    reference energy to select bands
   IMIX   =      4    mixing-type and parameters
     AMIX     =   0.40;   BMIX     =  1.00
     AMIX_MAG =   1.60;   BMIX_MAG =  1.00
     AMIN     =   0.10
     WC   =   100.;   INIMIX=   1;  MIXPRE=   1;  MAXMIX= -45

 Intra band minimization:
   WEIMIN = 0.0010     energy-eigenvalue tresh-hold
   EBREAK =  0.10E-08  absolut break condition
   DEPER  =   0.30     relativ break condition  

   TIME   =   0.40     timestep for ELM

  volume/ion in A,a.u.               =      66.21       446.82
  Fermi-wavevector in a.u.,A,eV,Ry     =   0.735328  1.389568  7.356767  0.540707
  Thomas-Fermi vector in A             =   1.828498
 
 Write flags
   LWAVE        =      F    write WAVECAR
   LDOWNSAMPLE  =      F    k-point downsampling of WAVECAR
   LCHARG       =      T    write CHGCAR
   LVTOT        =      F    write LOCPOT, total local potential
   LVHAR        =      F    write LOCPOT, Hartree potential only
   LELF         =      F    write electronic localiz. function (ELF)
   LORBIT       =      0    0 simple, 1 ext, 2 COOP (PROOUT), +10 PAW based schemes


 Dipole corrections
   LMONO  =      F    monopole corrections only (constant potential shift)
   LDIPOL =      T    correct potential (dipole corrections)
   IDIPOL =      3    1-x, 2-y, 3-z, 4-all directions 
   EPSILON=  1.0000000 bulk dielectric constant

 Exchange correlation treatment:
   GGA     =    PE    GGA type
   LEXCH   =     8    internal setting for exchange type
   VOSKOWN=      0    Vosko Wilk Nusair interpolation
   LHFCALC =     F    Hartree Fock is set to
   LHFONE  =     F    Hartree Fock one center treatment
   AEXX    =    0.0000 exact exchange contribution

 Linear response parameters
   LEPSILON=     F    determine dielectric tensor
   LRPA    =     F    only Hartree local field effects (RPA)
   LNABLA  =     F    use nabla operator in PAW spheres
   LVEL    =     F    velocity operator in full k-point grid
   LINTERFAST=   F  fast interpolation
   KINTER  =     0    interpolate to denser k-point grid
   CSHIFT  =0.1000    complex shift for real part using Kramers Kronig
   OMEGAMAX=  -1.0    maximum frequency
   DEG_THRESHOLD= 0.2000000E-02 threshold for treating states as degnerate
   RTIME   =   -0.100 relaxation time in fs
  (WPLASMAI=    0.000 imaginary part of plasma frequency in eV, 0.658/RTIME)
   DFIELD  = 0.0000000 0.0000000 0.0000000 field for delta impulse in time
 
 Orbital magnetization related:
   ORBITALMAG=     F  switch on orbital magnetization
   LCHIMAG   =     F  perturbation theory with respect to B field
   DQ        =  0.001000  dq finite difference perturbation B field
   LLRAUG    =     F  two centre corrections for induced B field



--------------------------------------------------------------------------------------------------------


 conjugate gradient relaxation of ions
 charge density and potential will be updated during run
 non-spin polarized calculation
 Variant of blocked Davidson
 Davidson routine will perform the subspace rotation
 perform sub-space diagonalisation
    after iterative eigenvector-optimisation
 modified Broyden-mixing scheme, WC =      100.0
 initial mixing is a Kerker type mixing with AMIX =  0.4000 and BMIX =      1.0000
 Hartree-type preconditioning will be used
 using additional bands            6
 reciprocal scheme for non local part
 use partial core corrections
 calculate Harris-corrections to forces 
   (improved forces if not selfconsistent)
 use gradient corrections 
 use of overlap-Matrix (Vanderbilt PP)
 Gauss-broadening in eV      SIGMA  =   0.10


--------------------------------------------------------------------------------------------------------


  energy-cutoff  :      600.00
  volume of cell :      397.27
      direct lattice vectors                 reciprocal lattice vectors
     3.363599539  0.000000000  0.000000000     0.297300552  0.000000000  0.000000000
     0.000000000  5.831751753  0.000000000     0.000000000  0.171475063  0.000000000
     0.000000000  0.000000000 20.252588272     0.000000000  0.000000000  0.049376405

  length of vectors
     3.363599539  5.831751753 20.252588272     0.297300552  0.171475063  0.049376405


 
 k-points in units of 2pi/SCALE and weight: K-Spacing Value to Generate K-Mesh: 0.01
   0.00000000  0.00000000  0.00000000       0.005
   0.01564740  0.00000000  0.00000000       0.010
   0.03129479  0.00000000  0.00000000       0.010
   0.04694219  0.00000000  0.00000000       0.010
   0.06258959  0.00000000  0.00000000       0.010
   0.07823699  0.00000000  0.00000000       0.010
   0.09388438  0.00000000  0.00000000       0.010
   0.10953178  0.00000000  0.00000000       0.010
   0.12517918  0.00000000  0.00000000       0.010
   0.14082658  0.00000000  0.00000000       0.010
   0.00000000  0.01558864  0.00000000       0.010
   0.01564740  0.01558864  0.00000000       0.010
   0.03129479  0.01558864  0.00000000       0.010
   0.04694219  0.01558864  0.00000000       0.010
   0.06258959  0.01558864  0.00000000       0.010
   0.07823699  0.01558864  0.00000000       0.010
   0.09388438  0.01558864  0.00000000       0.010
   0.10953178  0.01558864  0.00000000       0.010
   0.12517918  0.01558864  0.00000000       0.010
   0.14082658  0.01558864  0.00000000       0.010
  -0.14082658  0.01558864  0.00000000       0.010
  -0.12517918  0.01558864  0.00000000       0.010
  -0.10953178  0.01558864  0.00000000       0.010
  -0.09388438  0.01558864  0.00000000       0.010
  -0.07823699  0.01558864  0.00000000       0.010
  -0.06258959  0.01558864  0.00000000       0.010
  -0.04694219  0.01558864  0.00000000       0.010
  -0.03129479  0.01558864  0.00000000       0.010
  -0.01564740  0.01558864  0.00000000       0.010
   0.00000000  0.03117728  0.00000000       0.010
   0.01564740  0.03117728  0.00000000       0.010
   0.03129479  0.03117728  0.00000000       0.010
   0.04694219  0.03117728  0.00000000       0.010
   0.06258959  0.03117728  0.00000000       0.010
   0.07823699  0.03117728  0.00000000       0.010
   0.09388438  0.03117728  0.00000000       0.010
   0.10953178  0.03117728  0.00000000       0.010
   0.12517918  0.03117728  0.00000000       0.010
   0.14082658  0.03117728  0.00000000       0.010
  -0.14082658  0.03117728  0.00000000       0.010
  -0.12517918  0.03117728  0.00000000       0.010
  -0.10953178  0.03117728  0.00000000       0.010
  -0.09388438  0.03117728  0.00000000       0.010
  -0.07823699  0.03117728  0.00000000       0.010
  -0.06258959  0.03117728  0.00000000       0.010
  -0.04694219  0.03117728  0.00000000       0.010
  -0.03129479  0.03117728  0.00000000       0.010
  -0.01564740  0.03117728  0.00000000       0.010
   0.00000000  0.04676593  0.00000000       0.010
   0.01564740  0.04676593  0.00000000       0.010
   0.03129479  0.04676593  0.00000000       0.010
   0.04694219  0.04676593  0.00000000       0.010
   0.06258959  0.04676593  0.00000000       0.010
   0.07823699  0.04676593  0.00000000       0.010
   0.09388438  0.04676593  0.00000000       0.010
   0.10953178  0.04676593  0.00000000       0.010
   0.12517918  0.04676593  0.00000000       0.010
   0.14082658  0.04676593  0.00000000       0.010
  -0.14082658  0.04676593  0.00000000       0.010
  -0.12517918  0.04676593  0.00000000       0.010
  -0.10953178  0.04676593  0.00000000       0.010
  -0.09388438  0.04676593  0.00000000       0.010
  -0.07823699  0.04676593  0.00000000       0.010
  -0.06258959  0.04676593  0.00000000       0.010
  -0.04694219  0.04676593  0.00000000       0.010
  -0.03129479  0.04676593  0.00000000       0.010
  -0.01564740  0.04676593  0.00000000       0.010
   0.00000000  0.06235457  0.00000000       0.010
   0.01564740  0.06235457  0.00000000       0.010
   0.03129479  0.06235457  0.00000000       0.010
   0.04694219  0.06235457  0.00000000       0.010
   0.06258959  0.06235457  0.00000000       0.010
   0.07823699  0.06235457  0.00000000       0.010
   0.09388438  0.06235457  0.00000000       0.010
   0.10953178  0.06235457  0.00000000       0.010
   0.12517918  0.06235457  0.00000000       0.010
   0.14082658  0.06235457  0.00000000       0.010
  -0.14082658  0.06235457  0.00000000       0.010
  -0.12517918  0.06235457  0.00000000       0.010
  -0.10953178  0.06235457  0.00000000       0.010
  -0.09388438  0.06235457  0.00000000       0.010
  -0.07823699  0.06235457  0.00000000       0.010
  -0.06258959  0.06235457  0.00000000       0.010
  -0.04694219  0.06235457  0.00000000       0.010
  -0.03129479  0.06235457  0.00000000       0.010
  -0.01564740  0.06235457  0.00000000       0.010
   0.00000000  0.07794321  0.00000000       0.010
   0.01564740  0.07794321  0.00000000       0.010
   0.03129479  0.07794321  0.00000000       0.010
   0.04694219  0.07794321  0.00000000       0.010
   0.06258959  0.07794321  0.00000000       0.010
   0.07823699  0.07794321  0.00000000       0.010
   0.09388438  0.07794321  0.00000000       0.010
   0.10953178  0.07794321  0.00000000       0.010
   0.12517918  0.07794321  0.00000000       0.010
   0.14082658  0.07794321  0.00000000       0.010
  -0.14082658  0.07794321  0.00000000       0.010
  -0.12517918  0.07794321  0.00000000       0.010
  -0.10953178  0.07794321  0.00000000       0.010
  -0.09388438  0.07794321  0.00000000       0.010
  -0.07823699  0.07794321  0.00000000       0.010
  -0.06258959  0.07794321  0.00000000       0.010
  -0.04694219  0.07794321  0.00000000       0.010
  -0.03129479  0.07794321  0.00000000       0.010
  -0.01564740  0.07794321  0.00000000       0.010
 
 k-points in reciprocal lattice and weights: K-Spacing Value to Generate K-Mesh: 0.01
   0.00000000  0.00000000  0.00000000       0.005
   0.05263158  0.00000000  0.00000000       0.010
   0.10526316  0.00000000  0.00000000       0.010
   0.15789474  0.00000000  0.00000000       0.010
   0.21052632  0.00000000  0.00000000       0.010
   0.26315789  0.00000000  0.00000000       0.010
   0.31578947  0.00000000  0.00000000       0.010
   0.36842105  0.00000000  0.00000000       0.010
   0.42105263  0.00000000  0.00000000       0.010
   0.47368421  0.00000000  0.00000000       0.010
   0.00000000  0.09090909  0.00000000       0.010
   0.05263158  0.09090909  0.00000000       0.010
   0.10526316  0.09090909  0.00000000       0.010
   0.15789474  0.09090909  0.00000000       0.010
   0.21052632  0.09090909  0.00000000       0.010
   0.26315789  0.09090909  0.00000000       0.010
   0.31578947  0.09090909  0.00000000       0.010
   0.36842105  0.09090909  0.00000000       0.010
   0.42105263  0.09090909  0.00000000       0.010
   0.47368421  0.09090909  0.00000000       0.010
  -0.47368421  0.09090909  0.00000000       0.010
  -0.42105263  0.09090909  0.00000000       0.010
  -0.36842105  0.09090909  0.00000000       0.010
  -0.31578947  0.09090909  0.00000000       0.010
  -0.26315789  0.09090909  0.00000000       0.010
  -0.21052632  0.09090909  0.00000000       0.010
  -0.15789474  0.09090909  0.00000000       0.010
  -0.10526316  0.09090909  0.00000000       0.010
  -0.05263158  0.09090909  0.00000000       0.010
   0.00000000  0.18181818  0.00000000       0.010
   0.05263158  0.18181818  0.00000000       0.010
   0.10526316  0.18181818  0.00000000       0.010
   0.15789474  0.18181818  0.00000000       0.010
   0.21052632  0.18181818  0.00000000       0.010
   0.26315789  0.18181818  0.00000000       0.010
   0.31578947  0.18181818  0.00000000       0.010
   0.36842105  0.18181818  0.00000000       0.010
   0.42105263  0.18181818  0.00000000       0.010
   0.47368421  0.18181818  0.00000000       0.010
  -0.47368421  0.18181818  0.00000000       0.010
  -0.42105263  0.18181818  0.00000000       0.010
  -0.36842105  0.18181818  0.00000000       0.010
  -0.31578947  0.18181818  0.00000000       0.010
  -0.26315789  0.18181818  0.00000000       0.010
  -0.21052632  0.18181818  0.00000000       0.010
  -0.15789474  0.18181818  0.00000000       0.010
  -0.10526316  0.18181818  0.00000000       0.010
  -0.05263158  0.18181818  0.00000000       0.010
   0.00000000  0.27272727  0.00000000       0.010
   0.05263158  0.27272727  0.00000000       0.010
   0.10526316  0.27272727  0.00000000       0.010
   0.15789474  0.27272727  0.00000000       0.010
   0.21052632  0.27272727  0.00000000       0.010
   0.26315789  0.27272727  0.00000000       0.010
   0.31578947  0.27272727  0.00000000       0.010
   0.36842105  0.27272727  0.00000000       0.010
   0.42105263  0.27272727  0.00000000       0.010
   0.47368421  0.27272727  0.00000000       0.010
  -0.47368421  0.27272727  0.00000000       0.010
  -0.42105263  0.27272727  0.00000000       0.010
  -0.36842105  0.27272727  0.00000000       0.010
  -0.31578947  0.27272727  0.00000000       0.010
  -0.26315789  0.27272727  0.00000000       0.010
  -0.21052632  0.27272727  0.00000000       0.010
  -0.15789474  0.27272727  0.00000000       0.010
  -0.10526316  0.27272727  0.00000000       0.010
  -0.05263158  0.27272727  0.00000000       0.010
   0.00000000  0.36363636  0.00000000       0.010
   0.05263158  0.36363636  0.00000000       0.010
   0.10526316  0.36363636  0.00000000       0.010
   0.15789474  0.36363636  0.00000000       0.010
   0.21052632  0.36363636  0.00000000       0.010
   0.26315789  0.36363636  0.00000000       0.010
   0.31578947  0.36363636  0.00000000       0.010
   0.36842105  0.36363636  0.00000000       0.010
   0.42105263  0.36363636  0.00000000       0.010
   0.47368421  0.36363636  0.00000000       0.010
  -0.47368421  0.36363636  0.00000000       0.010
  -0.42105263  0.36363636  0.00000000       0.010
  -0.36842105  0.36363636  0.00000000       0.010
  -0.31578947  0.36363636  0.00000000       0.010
  -0.26315789  0.36363636  0.00000000       0.010
  -0.21052632  0.36363636  0.00000000       0.010
  -0.15789474  0.36363636  0.00000000       0.010
  -0.10526316  0.36363636  0.00000000       0.010
  -0.05263158  0.36363636  0.00000000       0.010
   0.00000000  0.45454545  0.00000000       0.010
   0.05263158  0.45454545  0.00000000       0.010
   0.10526316  0.45454545  0.00000000       0.010
   0.15789474  0.45454545  0.00000000       0.010
   0.21052632  0.45454545  0.00000000       0.010
   0.26315789  0.45454545  0.00000000       0.010
   0.31578947  0.45454545  0.00000000       0.010
   0.36842105  0.45454545  0.00000000       0.010
   0.42105263  0.45454545  0.00000000       0.010
   0.47368421  0.45454545  0.00000000       0.010
  -0.47368421  0.45454545  0.00000000       0.010
  -0.42105263  0.45454545  0.00000000       0.010
  -0.36842105  0.45454545  0.00000000       0.010
  -0.31578947  0.45454545  0.00000000       0.010
  -0.26315789  0.45454545  0.00000000       0.010
  -0.21052632  0.45454545  0.00000000       0.010
  -0.15789474  0.45454545  0.00000000       0.010
  -0.10526316  0.45454545  0.00000000       0.010
  -0.05263158  0.45454545  0.00000000       0.010
 
 position of ions in fractional coordinates (direct lattice) 
   0.49999997  0.16666654  0.50703967
   0.00000000  0.66666651  0.50703967
   0.49999997  0.83333325  0.57974952
   0.00000000  0.33333322  0.57974952
   0.50000000  0.83333325  0.41321075
   0.00000000  0.33333325  0.41321075
 
 position of ions in cartesian coordinates  (Angst):
   1.68179967  0.97195788 10.26886559
   0.00000000  3.88783358 10.26886559
   1.68179967  4.85979266 11.74142843
   0.00000000  1.94391661 11.74142843
   1.68179977  4.85979266  8.36858719
   0.00000000  1.94391679  8.36858719
 


--------------------------------------------------------------------------------------------------------


 k-point  1 :   0.0000 0.0000 0.0000  plane waves:   13279
 k-point  2 :   0.0526 0.0000 0.0000  plane waves:   13289
 k-point  3 :   0.1053 0.0000 0.0000  plane waves:   13289
 k-point  4 :   0.1579 0.0000 0.0000  plane waves:   13287
 k-point  5 :   0.2105 0.0000 0.0000  plane waves:   13269
 k-point  6 :   0.2632 0.0000 0.0000  plane waves:   13245
 k-point  7 :   0.3158 0.0000 0.0000  plane waves:   13254
 k-point  8 :   0.3684 0.0000 0.0000  plane waves:   13256
 k-point  9 :   0.4211 0.0000 0.0000  plane waves:   13256
 k-point 10 :   0.4737 0.0000 0.0000  plane waves:   13222
 k-point 11 :   0.0000 0.0909 0.0000  plane waves:   13303
 k-point 12 :   0.0526 0.0909 0.0000  plane waves:   13289
 k-point 13 :   0.1053 0.0909 0.0000  plane waves:   13299
 k-point 14 :   0.1579 0.0909 0.0000  plane waves:   13277
 k-point 15 :   0.2105 0.0909 0.0000  plane waves:   13279
 k-point 16 :   0.2632 0.0909 0.0000  plane waves:   13262
 k-point 17 :   0.3158 0.0909 0.0000  plane waves:   13249
 k-point 18 :   0.3684 0.0909 0.0000  plane waves:   13250
 k-point 19 :   0.4211 0.0909 0.0000  plane waves:   13241
 k-point 20 :   0.4737 0.0909 0.0000  plane waves:   13244
 k-point 21 :  -0.4737 0.0909 0.0000  plane waves:   13244
 k-point 22 :  -0.4211 0.0909 0.0000  plane waves:   13241
 k-point 23 :  -0.3684 0.0909 0.0000  plane waves:   13250
 k-point 24 :  -0.3158 0.0909 0.0000  plane waves:   13249
 k-point 25 :  -0.2632 0.0909 0.0000  plane waves:   13262
 k-point 26 :  -0.2105 0.0909 0.0000  plane waves:   13279
 k-point 27 :  -0.1579 0.0909 0.0000  plane waves:   13277
 k-point 28 :  -0.1053 0.0909 0.0000  plane waves:   13299
 k-point 29 :  -0.0526 0.0909 0.0000  plane waves:   13289
 k-point 30 :   0.0000 0.1818 0.0000  plane waves:   13281
 k-point 31 :   0.0526 0.1818 0.0000  plane waves:   13279
 k-point 32 :   0.1053 0.1818 0.0000  plane waves:   13271
 k-point 33 :   0.1579 0.1818 0.0000  plane waves:   13258
 k-point 34 :   0.2105 0.1818 0.0000  plane waves:   13253
 k-point 35 :   0.2632 0.1818 0.0000  plane waves:   13241
 k-point 36 :   0.3158 0.1818 0.0000  plane waves:   13236
 k-point 37 :   0.3684 0.1818 0.0000  plane waves:   13259
 k-point 38 :   0.4211 0.1818 0.0000  plane waves:   13268
 k-point 39 :   0.4737 0.1818 0.0000  plane waves:   13248
 k-point 40 :  -0.4737 0.1818 0.0000  plane waves:   13248
 k-point 41 :  -0.4211 0.1818 0.0000  plane waves:   13268
 k-point 42 :  -0.3684 0.1818 0.0000  plane waves:   13259
 k-point 43 :  -0.3158 0.1818 0.0000  plane waves:   13236
 k-point 44 :  -0.2632 0.1818 0.0000  plane waves:   13241
 k-point 45 :  -0.2105 0.1818 0.0000  plane waves:   13253
 k-point 46 :  -0.1579 0.1818 0.0000  plane waves:   13258
 k-point 47 :  -0.1053 0.1818 0.0000  plane waves:   13271
 k-point 48 :  -0.0526 0.1818 0.0000  plane waves:   13279
 k-point 49 :   0.0000 0.2727 0.0000  plane waves:   13265
 k-point 50 :   0.0526 0.2727 0.0000  plane waves:   13275
 k-point 51 :   0.1053 0.2727 0.0000  plane waves:   13264
 k-point 52 :   0.1579 0.2727 0.0000  plane waves:   13258
 k-point 53 :   0.2105 0.2727 0.0000  plane waves:   13255
 k-point 54 :   0.2632 0.2727 0.0000  plane waves:   13247
 k-point 55 :   0.3158 0.2727 0.0000  plane waves:   13234
 k-point 56 :   0.3684 0.2727 0.0000  plane waves:   13248
 k-point 57 :   0.4211 0.2727 0.0000  plane waves:   13268
 k-point 58 :   0.4737 0.2727 0.0000  plane waves:   13261
 k-point 59 :  -0.4737 0.2727 0.0000  plane waves:   13261
 k-point 60 :  -0.4211 0.2727 0.0000  plane waves:   13268
 k-point 61 :  -0.3684 0.2727 0.0000  plane waves:   13248
 k-point 62 :  -0.3158 0.2727 0.0000  plane waves:   13234
 k-point 63 :  -0.2632 0.2727 0.0000  plane waves:   13247
 k-point 64 :  -0.2105 0.2727 0.0000  plane waves:   13255
 k-point 65 :  -0.1579 0.2727 0.0000  plane waves:   13258
 k-point 66 :  -0.1053 0.2727 0.0000  plane waves:   13264
 k-point 67 :  -0.0526 0.2727 0.0000  plane waves:   13275
 k-point 68 :   0.0000 0.3636 0.0000  plane waves:   13238
 k-point 69 :   0.0526 0.3636 0.0000  plane waves:   13260
 k-point 70 :   0.1053 0.3636 0.0000  plane waves:   13262
 k-point 71 :   0.1579 0.3636 0.0000  plane waves:   13255
 k-point 72 :   0.2105 0.3636 0.0000  plane waves:   13245
 k-point 73 :   0.2632 0.3636 0.0000  plane waves:   13236
 k-point 74 :   0.3158 0.3636 0.0000  plane waves:   13233
 k-point 75 :   0.3684 0.3636 0.0000  plane waves:   13272
 k-point 76 :   0.4211 0.3636 0.0000  plane waves:   13268
 k-point 77 :   0.4737 0.3636 0.0000  plane waves:   13265
 k-point 78 :  -0.4737 0.3636 0.0000  plane waves:   13265
 k-point 79 :  -0.4211 0.3636 0.0000  plane waves:   13268
 k-point 80 :  -0.3684 0.3636 0.0000  plane waves:   13272
 k-point 81 :  -0.3158 0.3636 0.0000  plane waves:   13233
 k-point 82 :  -0.2632 0.3636 0.0000  plane waves:   13236
 k-point 83 :  -0.2105 0.3636 0.0000  plane waves:   13245
 k-point 84 :  -0.1579 0.3636 0.0000  plane waves:   13255
 k-point 85 :  -0.1053 0.3636 0.0000  plane waves:   13262
 k-point 86 :  -0.0526 0.3636 0.0000  plane waves:   13260
 k-point 87 :   0.0000 0.4545 0.0000  plane waves:   13268
 k-point 88 :   0.0526 0.4545 0.0000  plane waves:   13231
 k-point 89 :   0.1053 0.4545 0.0000  plane waves:   13234
 k-point 90 :   0.1579 0.4545 0.0000  plane waves:   13252
 k-point 91 :   0.2105 0.4545 0.0000  plane waves:   13241
 k-point 92 :   0.2632 0.4545 0.0000  plane waves:   13242
 k-point 93 :   0.3158 0.4545 0.0000  plane waves:   13246
 k-point 94 :   0.3684 0.4545 0.0000  plane waves:   13252
 k-point 95 :   0.4211 0.4545 0.0000  plane waves:   13272
 k-point 96 :   0.4737 0.4545 0.0000  plane waves:   13290
 k-point 97 :  -0.4737 0.4545 0.0000  plane waves:   13290
 k-point 98 :  -0.4211 0.4545 0.0000  plane waves:   13272
 k-point 99 :  -0.3684 0.4545 0.0000  plane waves:   13252
 k-point ** :  -0.3158 0.4545 0.0000  plane waves:   13246
 k-point ** :  -0.2632 0.4545 0.0000  plane waves:   13242
 k-point ** :  -0.2105 0.4545 0.0000  plane waves:   13241
 k-point ** :  -0.1579 0.4545 0.0000  plane waves:   13252
 k-point ** :  -0.1053 0.4545 0.0000  plane waves:   13234
 k-point ** :  -0.0526 0.4545 0.0000  plane waves:   13231

 maximum and minimum number of plane-waves per node :       568      531

 maximum number of plane-waves:     13303
 maximum index in each direction: 
   IXMAX=    7   IYMAX=   11   IZMAX=   40
   IXMIN=   -7   IYMIN=  -12   IZMIN=  -40


 parallel 3D FFT for wavefunctions:
    minimum data exchange during FFTs selected (reduces bandwidth)
 parallel 3D FFT for charge:
    minimum data exchange during FFTs selected (reduces bandwidth)


 total amount of memory used by VASP MPI-rank0    62433. kBytes
=======================================================================

   base      :      30000. kBytes
   nonl-proj :      25455. kBytes
   fftplans  :       1397. kBytes
   grid      :       2623. kBytes
   one-center:         15. kBytes
   wavefun   :       2943. kBytes
 
     INWAV:  cpu time    0.0000: real time    0.0000
 Broyden mixing: mesh for mixing (old mesh)
   NGX = 13   NGY = 23   NGZ = 81
  (NGX  = 56   NGY  = 96   NGZ  =324)
  gives a total of  24219 points

 initial charge density was supplied:
 charge density of overlapping atoms calculated
 number of electron      36.0000000 magnetization 
 keeping initial charge density in first step


--------------------------------------------------------------------------------------------------------


 Maximum index for augmentation-charges         1251 (set IRDMAX)


--------------------------------------------------------------------------------------------------------


 First call to EWALD:  gamma=   0.241
 Maximum number of real-space cells 5x 3x 1
 Maximum number of reciprocal cells 2x 2x 7

    FEWALD:  cpu time    0.0017: real time    0.0017


--------------------------------------- Iteration      1(   1)  ---------------------------------------


    POTLOK:  cpu time    0.0191: real time    0.0373
    SETDIJ:  cpu time    0.0055: real time    0.0055
     EDDAV:  cpu time    1.2104: real time    1.2190
       DOS:  cpu time    0.0018: real time    0.0018
    --------------------------------------------
      LOOP:  cpu time    1.2368: real time    1.2636

 eigenvalue-minimisations  :  5040
 total energy-change (2. order) : 0.2718565E+03  (-0.1300122E+04)
 number of electron      36.0000000 magnetization 
 augmentation part       36.0000000 magnetization 

 DIPCOR: dipole corrections for dipol
 direction  3 min pos     1,
 dipolmoment           0.000000      0.000000      0.000002 electrons x Angstroem
 Tr[quadrupol]      -124.747865

 energy correction for charged system         0.000000 eV
 dipol+quadrupol energy correction           -0.000000 eV
 added-field ion interaction          0.000000 eV  (added to PSCEN)


 Free energy of the ion-electron system (eV)
  ---------------------------------------------------
  alpha Z        PSCENC =        26.07819806
  Ewald energy   TEWEN  =      4175.27641222
  -Hartree energ DENC   =     -5496.27106953
  -exchange      EXHF   =         0.00000000
  -V(xc)+E(xc)   XCENC  =      -153.09917920
  PAW double counting   =      1381.62273368    -1155.94054365
  entropy T*S    EENTRO =        -0.01739421
  eigenvalues    EBANDS =        58.98564211
  atomic energy  EATOM  =      1435.22174307
  Solvation  Ediel_sol  =         0.00000000
  ---------------------------------------------------
  free energy    TOTEN  =       271.85654255 eV

  energy without entropy =      271.87393675  energy(sigma->0) =      271.86523965


--------------------------------------------------------------------------------------------------------




--------------------------------------- Iteration      1(   2)  ---------------------------------------


     EDDAV:  cpu time    1.4413: real time    1.4416
       DOS:  cpu time    0.0014: real time    0.0014
    --------------------------------------------
      LOOP:  cpu time    1.4428: real time    1.4430

 eigenvalue-minimisations  :  7936
 total energy-change (2. order) :-0.2787835E+03  (-0.2710686E+03)
 number of electron      36.0000000 magnetization 
 augmentation part       36.0000000 magnetization 

 DIPCOR: dipole corrections for dipol
 direction  3 min pos     1,
 dipolmoment           0.000000      0.000000      0.000002 electrons x Angstroem
 Tr[quadrupol]      -124.747865

 energy correction for charged system         0.000000 eV
 dipol+quadrupol energy correction           -0.000000 eV
 added-field ion interaction          0.000000 eV  (added to PSCEN)


 Free energy of the ion-electron system (eV)
  ---------------------------------------------------
  alpha Z        PSCENC =        26.07819806
  Ewald energy   TEWEN  =      4175.27641222
  -Hartree energ DENC   =     -5496.27106953
  -exchange      EXHF   =         0.00000000
  -V(xc)+E(xc)   XCENC  =      -153.09917920
  PAW double counting   =      1381.62273368    -1155.94054365
  entropy T*S    EENTRO =        -0.00000441
  eigenvalues    EBANDS =      -219.81520478
  atomic energy  EATOM  =      1435.22174307
  Solvation  Ediel_sol  =         0.00000000
  ---------------------------------------------------
  free energy    TOTEN  =        -6.92691455 eV

  energy without entropy =       -6.92691014  energy(sigma->0) =       -6.92691234


--------------------------------------------------------------------------------------------------------




--------------------------------------- Iteration      1(   3)  ---------------------------------------


     EDDAV:  cpu time    1.3056: real time    1.3060
       DOS:  cpu time    0.0012: real time    0.0012
    --------------------------------------------
      LOOP:  cpu time    1.3068: real time    1.3072

 eigenvalue-minimisations  :  6616
 total energy-change (2. order) :-0.3383611E+02  (-0.3356057E+02)
 number of electron      36.0000000 magnetization 
 augmentation part       36.0000000 magnetization 

 DIPCOR: dipole corrections for dipol
 direction  3 min pos     1,
 dipolmoment           0.000000      0.000000      0.000002 electrons x Angstroem
 Tr[quadrupol]      -124.747865

 energy correction for charged system         0.000000 eV
 dipol+quadrupol energy correction           -0.000000 eV
 added-field ion interaction          0.000000 eV  (added to PSCEN)


 Free energy of the ion-electron system (eV)
  ---------------------------------------------------
  alpha Z        PSCENC =        26.07819806
  Ewald energy   TEWEN  =      4175.27641222
  -Hartree energ DENC   =     -5496.27106953
  -exchange      EXHF   =         0.00000000
  -V(xc)+E(xc)   XCENC  =      -153.09917920
  PAW double counting   =      1381.62273368    -1155.94054365
  entropy T*S    EENTRO =        -0.00000000
  eigenvalues    EBANDS =      -253.65132097
  atomic energy  EATOM  =      1435.22174307
  Solvation  Ediel_sol  =         0.00000000
  ---------------------------------------------------
  free energy    TOTEN  =       -40.76302633 eV

  energy without entropy =      -40.76302633  energy(sigma->0) =      -40.76302633


--------------------------------------------------------------------------------------------------------




--------------------------------------- Iteration      1(   4)  ---------------------------------------


     EDDAV:  cpu time    1.3589: real time    1.3594
       DOS:  cpu time    0.0011: real time    0.0011
    --------------------------------------------
      LOOP:  cpu time    1.3600: real time    1.3605

 eigenvalue-minimisations  :  7280
 total energy-change (2. order) :-0.1126045E+01  (-0.1121450E+01)
 number of electron      36.0000000 magnetization 
 augmentation part       36.0000000 magnetization 

 DIPCOR: dipole corrections for dipol
 direction  3 min pos     1,
 dipolmoment           0.000000      0.000000      0.000002 electrons x Angstroem
 Tr[quadrupol]      -124.747865

 energy correction for charged system         0.000000 eV
 dipol+quadrupol energy correction           -0.000000 eV
 added-field ion interaction          0.000000 eV  (added to PSCEN)


 Free energy of the ion-electron system (eV)
  ---------------------------------------------------
  alpha Z        PSCENC =        26.07819806
  Ewald energy   TEWEN  =      4175.27641222
  -Hartree energ DENC   =     -5496.27106953
  -exchange      EXHF   =         0.00000000
  -V(xc)+E(xc)   XCENC  =      -153.09917920
  PAW double counting   =      1381.62273368    -1155.94054365
  entropy T*S    EENTRO =        -0.00000000
  eigenvalues    EBANDS =      -254.77736595
  atomic energy  EATOM  =      1435.22174307
  Solvation  Ediel_sol  =         0.00000000
  ---------------------------------------------------
  free energy    TOTEN  =       -41.88907131 eV

  energy without entropy =      -41.88907131  energy(sigma->0) =      -41.88907131


--------------------------------------------------------------------------------------------------------




--------------------------------------- Iteration      1(   5)  ---------------------------------------


     EDDAV:  cpu time    1.3796: real time    1.3800
       DOS:  cpu time    0.0011: real time    0.0011
    CHARGE:  cpu time    0.0441: real time    0.0441
    MIXING:  cpu time    0.0005: real time    0.0005
    --------------------------------------------
      LOOP:  cpu time    1.4253: real time    1.4257

 eigenvalue-minimisations  :  7544
 total energy-change (2. order) :-0.3687205E-01  (-0.3685711E-01)
 number of electron      36.0000000 magnetization 
 augmentation part       -2.3413821 magnetization 

 DIPCOR: dipole corrections for dipol
 direction  3 min pos     1,
 dipolmoment           0.000000      0.000000      0.000002 electrons x Angstroem
 Tr[quadrupol]      -124.747865

 energy correction for charged system         0.000000 eV
 dipol+quadrupol energy correction           -0.000000 eV
 added-field ion interaction          0.000000 eV  (added to PSCEN)


 Broyden mixing:
  rms(total) = 0.26911E+01    rms(broyden)= 0.26911E+01
  rms(prec ) = 0.27320E+01
  weight for this iteration     100.00

 Free energy of the ion-electron system (eV)
  ---------------------------------------------------
  alpha Z        PSCENC =        26.07819806
  Ewald energy   TEWEN  =      4175.27641222
  -Hartree energ DENC   =     -5496.27106953
  -exchange      EXHF   =         0.00000000
  -V(xc)+E(xc)   XCENC  =      -153.09917920
  PAW double counting   =      1381.62273368    -1155.94054365
  entropy T*S    EENTRO =        -0.00000000
  eigenvalues    EBANDS =      -254.81423800
  atomic energy  EATOM  =      1435.22174307
  Solvation  Ediel_sol  =         0.00000000
  ---------------------------------------------------
  free energy    TOTEN  =       -41.92594336 eV

  energy without entropy =      -41.92594336  energy(sigma->0) =      -41.92594336


--------------------------------------------------------------------------------------------------------




--------------------------------------- Iteration      1(   6)  ---------------------------------------


    POTLOK:  cpu time    0.0127: real time    0.0127
    SETDIJ:  cpu time    0.0020: real time    0.0020
     EDDAV:  cpu time    1.3404: real time    1.3410
       DOS:  cpu time    0.0016: real time    0.0016
    CHARGE:  cpu time    0.0440: real time    0.0440
    MIXING:  cpu time    0.0004: real time    0.0004
    --------------------------------------------
      LOOP:  cpu time    1.4011: real time    1.4017

 eigenvalue-minimisations  :  7192
 total energy-change (2. order) : 0.1944958E+01  (-0.1203066E+01)
 number of electron      36.0000000 magnetization 
 augmentation part       -1.4100245 magnetization 

 DIPCOR: dipole corrections for dipol
 direction  3 min pos     1,
 dipolmoment           0.000000      0.000000      0.188289 electrons x Angstroem
 Tr[quadrupol]      -124.784753

 energy correction for charged system         0.000000 eV
 dipol+quadrupol energy correction           -0.008074 eV
 added-field ion interaction          0.000001 eV  (added to PSCEN)


 Broyden mixing:
  rms(total) = 0.11689E+01    rms(broyden)= 0.11689E+01
  rms(prec ) = 0.12024E+01
  weight for this iteration     100.00

 eigenvalues of (default mixing * dielectric matrix)
  average eigenvalue GAMMA=   1.2084
  1.2084

 Free energy of the ion-electron system (eV)
  ---------------------------------------------------
  alpha Z        PSCENC =        26.07012503
  Ewald energy   TEWEN  =      4175.27641222
  -Hartree energ DENC   =     -5495.66071859
  -exchange      EXHF   =         0.00000000
  -V(xc)+E(xc)   XCENC  =      -151.83100467
  PAW double counting   =      1934.60191903    -1710.41556885
  entropy T*S    EENTRO =        -0.00000029
  eigenvalues    EBANDS =      -253.24389271
  atomic energy  EATOM  =      1435.22174307
  Solvation  Ediel_sol  =         0.00000000
  ---------------------------------------------------
  free energy    TOTEN  =       -39.98098577 eV

  energy without entropy =      -39.98098548  energy(sigma->0) =      -39.98098562


--------------------------------------------------------------------------------------------------------




--------------------------------------- Iteration      1(   7)  ---------------------------------------


    POTLOK:  cpu time    0.0122: real time    0.0125
    SETDIJ:  cpu time    0.0021: real time    0.0021
     EDDAV:  cpu time    1.3085: real time    1.3089
       DOS:  cpu time    0.0012: real time    0.0012
    CHARGE:  cpu time    0.0440: real time    0.0440
    MIXING:  cpu time    0.0003: real time    0.0003
    --------------------------------------------
      LOOP:  cpu time    1.3684: real time    1.3690

 eigenvalue-minimisations  :  6856
 total energy-change (2. order) : 0.1918356E+00  (-0.6863750E+00)
 number of electron      36.0000000 magnetization 
 augmentation part       -2.0194292 magnetization 

 DIPCOR: dipole corrections for dipol
 direction  3 min pos     1,
 dipolmoment           0.000000      0.000000      0.186022 electrons x Angstroem
 Tr[quadrupol]      -125.552930

 energy correction for charged system         0.000000 eV
 dipol+quadrupol energy correction           -0.007881 eV
 added-field ion interaction          0.000001 eV  (added to PSCEN)


 Broyden mixing:
  rms(total) = 0.72572E+00    rms(broyden)= 0.72572E+00
  rms(prec ) = 0.75910E+00
  weight for this iteration     100.00

 eigenvalues of (default mixing * dielectric matrix)
  average eigenvalue GAMMA=   1.2026
  1.7933  0.6120

 Free energy of the ion-electron system (eV)
  ---------------------------------------------------
  alpha Z        PSCENC =        26.07031831
  Ewald energy   TEWEN  =      4175.27641222
  -Hartree energ DENC   =     -5510.91393107
  -exchange      EXHF   =         0.00000000
  -V(xc)+E(xc)   XCENC  =      -152.00929436
  PAW double counting   =      2472.38625738    -2248.79950783
  entropy T*S    EENTRO =        -0.00000000
  eigenvalues    EBANDS =      -237.02114789
  atomic energy  EATOM  =      1435.22174307
  Solvation  Ediel_sol  =         0.00000000
  ---------------------------------------------------
  free energy    TOTEN  =       -39.78915017 eV

  energy without entropy =      -39.78915017  energy(sigma->0) =      -39.78915017


--------------------------------------------------------------------------------------------------------




--------------------------------------- Iteration      1(   8)  ---------------------------------------


    POTLOK:  cpu time    0.0123: real time    0.0123
    SETDIJ:  cpu time    0.0020: real time    0.0020
     EDDAV:  cpu time    1.2977: real time    1.2981
       DOS:  cpu time    0.0012: real time    0.0012
    CHARGE:  cpu time    0.0437: real time    0.0437
    MIXING:  cpu time    0.0004: real time    0.0004
    --------------------------------------------
      LOOP:  cpu time    1.3574: real time    1.3577

 eigenvalue-minimisations  :  6832
 total energy-change (2. order) : 0.3473899E+00  (-0.1535223E+00)
 number of electron      36.0000000 magnetization 
 augmentation part       -1.7206971 magnetization 

 DIPCOR: dipole corrections for dipol
 direction  3 min pos     1,
 dipolmoment           0.000000      0.000000      0.136826 electrons x Angstroem
 Tr[quadrupol]      -125.519709

 energy correction for charged system         0.000000 eV
 dipol+quadrupol energy correction           -0.004264 eV
 added-field ion interaction          0.000001 eV  (added to PSCEN)


 Broyden mixing:
  rms(total) = 0.26546E+00    rms(broyden)= 0.26545E+00
  rms(prec ) = 0.27127E+00
  weight for this iteration     100.00

 eigenvalues of (default mixing * dielectric matrix)
  average eigenvalue GAMMA=   1.0998
  2.0526  0.6568  0.5899

 Free energy of the ion-electron system (eV)
  ---------------------------------------------------
  alpha Z        PSCENC =        26.07393521
  Ewald energy   TEWEN  =      4175.27641222
  -Hartree energ DENC   =     -5508.67226312
  -exchange      EXHF   =         0.00000000
  -V(xc)+E(xc)   XCENC  =      -151.53569736
  PAW double counting   =      2820.30063256    -2597.26691857
  entropy T*S    EENTRO =        -0.00000000
  eigenvalues    EBANDS =      -238.83960433
  atomic energy  EATOM  =      1435.22174307
  Solvation  Ediel_sol  =         0.00000000
  ---------------------------------------------------
  free energy    TOTEN  =       -39.44176032 eV

  energy without entropy =      -39.44176032  energy(sigma->0) =      -39.44176032


--------------------------------------------------------------------------------------------------------




--------------------------------------- Iteration      1(   9)  ---------------------------------------


    POTLOK:  cpu time    0.0127: real time    0.0127
    SETDIJ:  cpu time    0.0021: real time    0.0021
     EDDAV:  cpu time    1.2914: real time    1.2918
       DOS:  cpu time    0.0011: real time    0.0011
    CHARGE:  cpu time    0.0437: real time    0.0437
    MIXING:  cpu time    0.0004: real time    0.0004
    --------------------------------------------
      LOOP:  cpu time    1.3513: real time    1.3517

 eigenvalue-minimisations  :  6640
 total energy-change (2. order) : 0.1518007E-01  (-0.1057629E-01)
 number of electron      36.0000000 magnetization 
 augmentation part       -1.7114193 magnetization 

 DIPCOR: dipole corrections for dipol
 direction  3 min pos     1,
 dipolmoment           0.000000      0.000000      0.164558 electrons x Angstroem
 Tr[quadrupol]      -125.627979

 energy correction for charged system         0.000000 eV
 dipol+quadrupol energy correction           -0.006167 eV
 added-field ion interaction          0.000001 eV  (added to PSCEN)


 Broyden mixing:
  rms(total) = 0.97857E-01    rms(broyden)= 0.97857E-01
  rms(prec ) = 0.10042E+00
  weight for this iteration     100.00

 eigenvalues of (default mixing * dielectric matrix)
  average eigenvalue GAMMA=   1.1515
  2.0106  0.9956  0.9956  0.6042

 Free energy of the ion-electron system (eV)
  ---------------------------------------------------
  alpha Z        PSCENC =        26.07203189
  Ewald energy   TEWEN  =      4175.27641222
  -Hartree energ DENC   =     -5510.98084673
  -exchange      EXHF   =         0.00000000
  -V(xc)+E(xc)   XCENC  =      -151.42493814
  PAW double counting   =      2947.52529200    -2724.66812927
  entropy T*S    EENTRO =        -0.00000000
  eigenvalues    EBANDS =      -236.44814528
  atomic energy  EATOM  =      1435.22174307
  Solvation  Ediel_sol  =         0.00000000
  ---------------------------------------------------
  free energy    TOTEN  =       -39.42658025 eV

  energy without entropy =      -39.42658025  energy(sigma->0) =      -39.42658025


--------------------------------------------------------------------------------------------------------




--------------------------------------- Iteration      1(  10)  ---------------------------------------


    POTLOK:  cpu time    0.0122: real time    0.0122
    SETDIJ:  cpu time    0.0020: real time    0.0020
     EDDAV:  cpu time    1.3829: real time    1.3832
       DOS:  cpu time    0.0012: real time    0.0012
    CHARGE:  cpu time    0.0435: real time    0.0435
    MIXING:  cpu time    0.0004: real time    0.0004
    --------------------------------------------
      LOOP:  cpu time    1.4422: real time    1.4425

 eigenvalue-minimisations  :  7408
 total energy-change (2. order) : 0.2576754E-02  (-0.2200543E-02)
 number of electron      36.0000000 magnetization 
 augmentation part       -1.7316778 magnetization 

 DIPCOR: dipole corrections for dipol
 direction  3 min pos     1,
 dipolmoment           0.000000      0.000000      0.168035 electrons x Angstroem
 Tr[quadrupol]      -125.707004

 energy correction for charged system         0.000000 eV
 dipol+quadrupol energy correction           -0.006431 eV
 added-field ion interaction          0.000001 eV  (added to PSCEN)


 Broyden mixing:
  rms(total) = 0.83125E-01    rms(broyden)= 0.83125E-01
  rms(prec ) = 0.84200E-01
  weight for this iteration     100.00

 eigenvalues of (default mixing * dielectric matrix)
  average eigenvalue GAMMA=   1.3267
  2.1771  2.1771  1.0379  0.6206  0.6206

 Free energy of the ion-electron system (eV)
  ---------------------------------------------------
  alpha Z        PSCENC =        26.07176859
  Ewald energy   TEWEN  =      4175.27641222
  -Hartree energ DENC   =     -5512.84773697
  -exchange      EXHF   =         0.00000000
  -V(xc)+E(xc)   XCENC  =      -151.38362531
  PAW double counting   =      2967.72206684    -2744.92303513
  entropy T*S    EENTRO =        -0.00000000
  eigenvalues    EBANDS =      -234.56159680
  atomic energy  EATOM  =      1435.22174307
  Solvation  Ediel_sol  =         0.00000000
  ---------------------------------------------------
  free energy    TOTEN  =       -39.42400349 eV

  energy without entropy =      -39.42400349  energy(sigma->0) =      -39.42400349


--------------------------------------------------------------------------------------------------------




--------------------------------------- Iteration      1(  11)  ---------------------------------------


    POTLOK:  cpu time    0.0123: real time    0.0124
    SETDIJ:  cpu time    0.0020: real time    0.0020
     EDDAV:  cpu time    1.3621: real time    1.3624
       DOS:  cpu time    0.0012: real time    0.0012
    CHARGE:  cpu time    0.0439: real time    0.0439
    MIXING:  cpu time    0.0004: real time    0.0004
    --------------------------------------------
      LOOP:  cpu time    1.4220: real time    1.4223

 eigenvalue-minimisations  :  7376
 total energy-change (2. order) : 0.1373990E-02  (-0.3731719E-03)
 number of electron      36.0000000 magnetization 
 augmentation part       -1.7250424 magnetization 

 DIPCOR: dipole corrections for dipol
 direction  3 min pos     1,
 dipolmoment           0.000000      0.000000      0.160055 electrons x Angstroem
 Tr[quadrupol]      -125.778459

 energy correction for charged system         0.000000 eV
 dipol+quadrupol energy correction           -0.005834 eV
 added-field ion interaction          0.000001 eV  (added to PSCEN)


 Broyden mixing:
  rms(total) = 0.47605E-01    rms(broyden)= 0.47605E-01
  rms(prec ) = 0.49152E-01
  weight for this iteration     100.00

 eigenvalues of (default mixing * dielectric matrix)
  average eigenvalue GAMMA=   1.3142
  2.3636  2.3636  1.0423  0.6125  0.7516  0.7516

 Free energy of the ion-electron system (eV)
  ---------------------------------------------------
  alpha Z        PSCENC =        26.07236476
  Ewald energy   TEWEN  =      4175.27641222
  -Hartree energ DENC   =     -5514.35740991
  -exchange      EXHF   =         0.00000000
  -V(xc)+E(xc)   XCENC  =      -151.34224387
  PAW double counting   =      2985.42170208    -2762.66819035
  entropy T*S    EENTRO =        -0.00000000
  eigenvalues    EBANDS =      -233.04700750
  atomic energy  EATOM  =      1435.22174307
  Solvation  Ediel_sol  =         0.00000000
  ---------------------------------------------------
  free energy    TOTEN  =       -39.42262950 eV

  energy without entropy =      -39.42262950  energy(sigma->0) =      -39.42262950


--------------------------------------------------------------------------------------------------------




--------------------------------------- Iteration      1(  12)  ---------------------------------------


    POTLOK:  cpu time    0.0123: real time    0.0123
    SETDIJ:  cpu time    0.0020: real time    0.0020
     EDDAV:  cpu time    1.3385: real time    1.3389
       DOS:  cpu time    0.0011: real time    0.0011
    CHARGE:  cpu time    0.0439: real time    0.0439
    MIXING:  cpu time    0.0005: real time    0.0005
    --------------------------------------------
      LOOP:  cpu time    1.3983: real time    1.3987

 eigenvalue-minimisations  :  7120
 total energy-change (2. order) : 0.8797113E-03  (-0.3355636E-03)
 number of electron      36.0000000 magnetization 
 augmentation part       -1.7288265 magnetization 

 DIPCOR: dipole corrections for dipol
 direction  3 min pos     1,
 dipolmoment           0.000000      0.000000      0.165052 electrons x Angstroem
 Tr[quadrupol]      -125.843711

 energy correction for charged system         0.000000 eV
 dipol+quadrupol energy correction           -0.006204 eV
 added-field ion interaction          0.000001 eV  (added to PSCEN)


 Broyden mixing:
  rms(total) = 0.14540E-01    rms(broyden)= 0.14540E-01
  rms(prec ) = 0.16214E-01
  weight for this iteration     100.00

 eigenvalues of (default mixing * dielectric matrix)
  average eigenvalue GAMMA=   1.2861
  2.2570  2.2570  1.4282  0.9870  0.6597  0.6597  0.7538

 Free energy of the ion-electron system (eV)
  ---------------------------------------------------
  alpha Z        PSCENC =        26.07199482
  Ewald energy   TEWEN  =      4175.27641222
  -Hartree energ DENC   =     -5515.81473727
  -exchange      EXHF   =         0.00000000
  -V(xc)+E(xc)   XCENC  =      -151.31994268
  PAW double counting   =      2984.43464181    -2761.69327590
  entropy T*S    EENTRO =        -0.00000000
  eigenvalues    EBANDS =      -231.59858586
  atomic energy  EATOM  =      1435.22174307
  Solvation  Ediel_sol  =         0.00000000
  ---------------------------------------------------
  free energy    TOTEN  =       -39.42174979 eV

  energy without entropy =      -39.42174979  energy(sigma->0) =      -39.42174979


--------------------------------------------------------------------------------------------------------




--------------------------------------- Iteration      1(  13)  ---------------------------------------


    POTLOK:  cpu time    0.0124: real time    0.0124
    SETDIJ:  cpu time    0.0020: real time    0.0020
     EDDAV:  cpu time    1.2870: real time    1.2879
       DOS:  cpu time    0.0011: real time    0.0011
    CHARGE:  cpu time    0.0440: real time    0.0440
    MIXING:  cpu time    0.0005: real time    0.0005
    --------------------------------------------
      LOOP:  cpu time    1.3470: real time    1.3479

 eigenvalue-minimisations  :  6736
 total energy-change (2. order) : 0.1739426E-03  (-0.1602594E-03)
 number of electron      36.0000000 magnetization 
 augmentation part       -1.7190108 magnetization 

 DIPCOR: dipole corrections for dipol
 direction  3 min pos     1,
 dipolmoment           0.000000      0.000000      0.163798 electrons x Angstroem
 Tr[quadrupol]      -125.878661

 energy correction for charged system         0.000000 eV
 dipol+quadrupol energy correction           -0.006110 eV
 added-field ion interaction          0.000001 eV  (added to PSCEN)


 Broyden mixing:
  rms(total) = 0.97997E-02    rms(broyden)= 0.97997E-02
  rms(prec ) = 0.11008E-01
  weight for this iteration     100.00

 eigenvalues of (default mixing * dielectric matrix)
  average eigenvalue GAMMA=   1.2974
  2.4940  2.4940  1.6051  1.1938  0.6824  0.6824  0.6545  0.5728

 Free energy of the ion-electron system (eV)
  ---------------------------------------------------
  alpha Z        PSCENC =        26.07208872
  Ewald energy   TEWEN  =      4175.27641222
  -Hartree energ DENC   =     -5516.50532941
  -exchange      EXHF   =         0.00000000
  -V(xc)+E(xc)   XCENC  =      -151.30272086
  PAW double counting   =      2985.81911419    -2763.07984353
  entropy T*S    EENTRO =        -0.00000000
  eigenvalues    EBANDS =      -230.92304023
  atomic energy  EATOM  =      1435.22174307
  Solvation  Ediel_sol  =         0.00000000
  ---------------------------------------------------
  free energy    TOTEN  =       -39.42157585 eV

  energy without entropy =      -39.42157585  energy(sigma->0) =      -39.42157585


--------------------------------------------------------------------------------------------------------




--------------------------------------- Iteration      1(  14)  ---------------------------------------


    POTLOK:  cpu time    0.0126: real time    0.0126
    SETDIJ:  cpu time    0.0020: real time    0.0020
     EDDAV:  cpu time    1.2673: real time    1.2677
       DOS:  cpu time    0.0012: real time    0.0012
    CHARGE:  cpu time    0.0432: real time    0.0437
[...]
     24       1.6825      0.00000

 k-point    96 :       0.4737    0.4545    0.0000
  band No.  band energies     occupation 
      1     -13.7286      2.00000
      2     -13.7143      2.00000
      3     -12.2775      2.00000
      4     -12.2359      2.00000
      5      -7.4487      2.00000
      6      -7.4129      2.00000
      7      -6.2670      2.00000
      8      -6.2523      2.00000
      9      -5.2474      2.00000
     10      -5.2467      2.00000
     11      -4.5235      2.00000
     12      -4.5061      2.00000
     13      -3.4837      2.00000
     14      -3.4798      2.00000
     15      -2.4288      2.00000
     16      -2.2672      2.00000
     17      -2.1144      2.00000
     18      -2.0015      2.00000
     19       0.0777      0.00000
     20       0.0945      0.00000
     21       0.2357      0.00000
     22       0.2853      0.00000
     23       1.6518      0.00000
     24       1.6581      0.00000

 k-point    97 :      -0.4737    0.4545    0.0000
  band No.  band energies     occupation 
      1     -13.7286      2.00000
      2     -13.7143      2.00000
      3     -12.2775      2.00000
      4     -12.2359      2.00000
      5      -7.4487      2.00000
      6      -7.4129      2.00000
      7      -6.2670      2.00000
      8      -6.2523      2.00000
      9      -5.2474      2.00000
     10      -5.2467      2.00000
     11      -4.5235      2.00000
     12      -4.5061      2.00000
     13      -3.4837      2.00000
     14      -3.4798      2.00000
     15      -2.4288      2.00000
     16      -2.2672      2.00000
     17      -2.1144      2.00000
     18      -2.0015      2.00000
     19       0.0777      0.00000
     20       0.0945      0.00000
     21       0.2357      0.00000
     22       0.2853      0.00000
     23       1.6518      0.00000
     24       1.6581      0.00000

 k-point    98 :      -0.4211    0.4545    0.0000
  band No.  band energies     occupation 
      1     -13.7766      2.00000
      2     -13.7340      2.00000
      3     -12.4172      2.00000
      4     -12.3012      2.00000
      5      -7.2961      2.00000
      6      -7.1999      2.00000
      7      -6.2192      2.00000
      8      -6.1734      2.00000
      9      -5.2421      2.00000
     10      -5.2398      2.00000
     11      -4.5328      2.00000
     12      -4.4753      2.00000
     13      -3.4815      2.00000
     14      -3.4644      2.00000
     15      -2.6823      2.00000
     16      -2.3623      2.00000
     17      -2.1400      2.00000
     18      -1.9632      2.00000
     19       0.0583      0.00000
     20       0.1071      0.00000
     21       0.1582      0.00000
     22       0.2764      0.00000
     23       1.6650      0.00000
     24       1.6825      0.00000

 k-point    99 :      -0.3684    0.4545    0.0000
  band No.  band energies     occupation 
      1     -13.8550      2.00000
      2     -13.7845      2.00000
      3     -12.6191      2.00000
      4     -12.4489      2.00000
      5      -6.9989      2.00000
      6      -6.8708      2.00000
      7      -6.1052      2.00000
      8      -6.0214      2.00000
      9      -5.2426      2.00000
     10      -5.2279      2.00000
     11      -4.5556      2.00000
     12      -4.4511      2.00000
     13      -3.4481      2.00000
     14      -3.4123      2.00000
     15      -2.9696      2.00000
     16      -2.6016      2.00000
     17      -2.1257      2.00000
     18      -1.9880      2.00000
     19      -0.0003      0.00000
     20       0.0063      0.00000
     21       0.1905      0.00000
     22       0.2520      0.00000
     23       1.5630      0.00000
     24       1.6014      0.00000

 k-point   100 :      -0.3158    0.4545    0.0000
  band No.  band energies     occupation 
      1     -13.9576      2.00000
      2     -13.8597      2.00000
      3     -12.8426      2.00000
      4     -12.6388      2.00000
      5      -6.6471      2.00000
      6      -6.5253      2.00000
      7      -5.9131      2.00000
      8      -5.7837      2.00000
      9      -5.2473      2.00000
     10      -5.2247      2.00000
     11      -4.5942      2.00000
     12      -4.4521      2.00000
     13      -3.3567      2.00000
     14      -3.3454      2.00000
     15      -3.1993      2.00000
     16      -2.8420      2.00000
     17      -2.1178      2.00000
     18      -2.0312      2.00000
     19      -0.1212      0.00000
     20      -0.1212      0.00000
     21       0.2567      0.00000
     22       0.2636      0.00000
     23       1.3513      0.00000
     24       1.4198      0.00000

 k-point   101 :      -0.2632    0.4545    0.0000
  band No.  band energies     occupation 
      1     -14.0752      2.00000
      2     -13.9509      2.00000
      3     -13.0560      2.00000
      4     -12.8350      2.00000
      5      -6.3531      2.00000
      6      -6.2632      2.00000
      7      -5.6481      2.00000
      8      -5.5437      2.00000
      9      -5.2381      2.00000
     10      -5.1642      2.00000
     11      -4.6100      2.00000
     12      -4.4630      2.00000
     13      -3.4625      2.00000
     14      -3.2261      2.00000
     15      -3.1440      2.00000
     16      -3.0361      2.00000
     17      -2.0767      2.00000
     18      -2.0491      2.00000
     19      -0.2500      0.00000
     20      -0.2243      0.00000
     21       0.2907      0.00000
     22       0.3219      0.00000
     23       1.1465      0.00000
     24       1.1878      0.00000

 k-point   102 :      -0.2105    0.4545    0.0000
  band No.  band energies     occupation 
      1     -14.1965      2.00000
      2     -14.0479      2.00000
      3     -13.2403      2.00000
      4     -13.0128      2.00000
      5      -6.1784      2.00000
      6      -6.1297      2.00000
      7      -5.4770      2.00000
      8      -5.4686      2.00000
      9      -5.1658      2.00000
     10      -4.8579      2.00000
     11      -4.5776      2.00000
     12      -4.4520      2.00000
     13      -3.4956      2.00000
     14      -3.1855      2.00000
     15      -3.0694      2.00000
     16      -3.0625      2.00000
     17      -2.0226      2.00000
     18      -1.9935      2.00000
     19      -0.3272      0.00000
     20      -0.2649      0.00000
     21       0.3158      0.00000
     22       0.3846      0.00000
     23       0.9830      0.00000
     24       0.9987      0.00000

 k-point   103 :      -0.1579    0.4545    0.0000
  band No.  band energies     occupation 
      1     -14.3084      2.00000
      2     -14.1392      2.00000
      3     -13.3860      2.00000
      4     -13.1580      2.00000
      5      -6.1267      2.00000
      6      -6.1208      2.00000
      7      -5.4708      2.00000
      8      -5.4284      2.00000
      9      -4.9661      2.00000
     10      -4.5605      2.00000
     11      -4.5199      2.00000
     12      -4.3970      2.00000
     13      -3.3394      2.00000
     14      -3.2082      2.00000
     15      -3.0582      2.00000
     16      -2.9760      2.00000
     17      -1.9878      2.00000
     18      -1.9126      2.00000
     19      -0.3171      0.00000
     20      -0.2195      0.00000
     21       0.3473      0.00000
     22       0.4630      0.00000
     23       0.8663      0.00000
     24       0.9510      0.00000

 k-point   104 :      -0.1053    0.4545    0.0000
  band No.  band energies     occupation 
      1     -14.3984      2.00000
      2     -14.2136      2.00000
      3     -13.4903      2.00000
      4     -13.2640      2.00000
      5      -6.1909      2.00000
      6      -6.1437      2.00000
      7      -5.4821      2.00000
      8      -5.3662      2.00000
      9      -4.8481      2.00000
     10      -4.4191      2.00000
     11      -4.4078      2.00000
     12      -4.2739      2.00000
     13      -3.1865      2.00000
     14      -3.1716      2.00000
     15      -3.0196      2.00000
     16      -2.8761      2.00000
     17      -2.0124      2.00000
     18      -1.8961      2.00000
     19      -0.2389      0.00000
     20      -0.1212      0.00000
     21       0.4086      0.00000
     22       0.5752      0.00000
     23       0.8784      0.00000
     24       1.0194      0.00000

 k-point   105 :      -0.0526    0.4545    0.0000
  band No.  band energies     occupation 
      1     -14.4566      2.00000
      2     -14.2623      2.00000
      3     -13.5526      2.00000
      4     -13.3281      2.00000
      5      -6.2520      2.00000
      6      -6.1858      2.00000
      7      -5.4827      2.00000
      8      -5.3237      2.00000
      9      -4.8238      2.00000
     10      -4.3758      2.00000
     11      -4.2487      2.00000
     12      -4.1500      2.00000
     13      -3.2676      2.00000
     14      -3.1900      2.00000
     15      -2.7562      2.00000
     16      -2.7514      2.00000
     17      -2.1132      2.00000
     18      -1.9423      2.00000
     19      -0.1666      0.00000
     20      -0.0467      0.00000
     21       0.4960      0.00000
     22       0.6943      0.00000
     23       0.9781      0.00000
     24       1.1440      0.00000


--------------------------------------------------------------------------------------------------------


 soft charge-density along one line, spin component           1
         0         1         2         3         4         5         6         7         8         9
 total charge-density along one line
 
 pseudopotential strength for first ion, spin component:           1
 -9.504  -0.000  -0.000  -0.002  -0.000  -9.694  -0.000  -0.000
 -0.000  -9.512   0.000   0.000  -0.002  -0.000  -9.702   0.000
 -0.000   0.000  -9.500   0.000  -0.000  -0.000   0.000  -9.691
 -0.002   0.000   0.000  -9.511   0.000  -0.002   0.000   0.000
 -0.000  -0.002  -0.000   0.000  -9.504  -0.000  -0.002  -0.000
 -9.694  -0.000  -0.000  -0.002  -0.000  -9.874  -0.000  -0.000
 -0.000  -9.702   0.000   0.000  -0.002  -0.000  -9.882   0.000
 -0.000   0.000  -9.691   0.000  -0.000  -0.000   0.000  -9.871
 -0.002   0.000   0.000  -9.702   0.000  -0.002   0.000   0.000
 -0.000  -0.002  -0.000   0.000  -9.694  -0.000  -0.002  -0.000
 -0.000   0.000   0.001  -0.000  -0.000  -0.000   0.000   0.001
 -0.000   0.000   0.001  -0.000  -0.000  -0.000   0.000   0.001
 -0.000  -0.029  -0.000   0.000   0.007  -0.000  -0.029  -0.000
  0.000   0.000  -0.030  -0.000   0.000   0.000   0.000  -0.030
  0.007   0.000   0.000  -0.029  -0.000   0.007   0.000   0.000
 -0.000  -0.036  -0.000   0.000   0.007  -0.000  -0.036  -0.000
  0.000   0.000  -0.037  -0.000   0.000   0.000   0.000  -0.038
  0.008   0.000   0.000  -0.035  -0.000   0.008   0.000   0.000
 total augmentation occupancy for first ion, spin component:           1
  2.098  -0.000  -0.000   0.432  -0.000  -2.476  -0.000   0.000  -0.615   0.000  -0.000   0.000  -0.000  -0.000  -0.322   0.000
 -0.000   3.172  -0.000   0.000   0.431   0.000  -4.131   0.000  -0.000  -0.614  -0.001   0.000  -0.147  -0.001  -0.000   0.029
 -0.000  -0.000   1.539   0.000  -0.000   0.000   0.000  -1.726  -0.000   0.000  -0.100   0.017  -0.000   0.166   0.000   0.000
  0.432   0.000   0.000   3.172   0.000  -0.615  -0.000  -0.000  -4.131  -0.000   0.000   0.000  -0.000   0.000  -0.147   0.000
 -0.000   0.431  -0.000   0.000   2.096   0.000  -0.613   0.000  -0.000  -2.474  -0.000   0.000  -0.321  -0.000  -0.000   0.048
 -2.476   0.000   0.000  -0.615   0.000   3.767  -0.000  -0.000   0.765  -0.000   0.000  -0.000   0.000   0.000   0.392  -0.000
 -0.000  -4.131   0.000  -0.000  -0.613  -0.000   5.949  -0.000   0.000   0.763   0.001  -0.000   0.166   0.001   0.000  -0.039
  0.000   0.000  -1.726  -0.000   0.000  -0.000  -0.000   2.851   0.000  -0.001   0.229  -0.019   0.000  -0.139  -0.000  -0.000
 -0.615  -0.000  -0.000  -4.131  -0.000   0.765   0.000   0.000   5.949   0.000  -0.000  -0.000   0.000   0.000   0.166  -0.000
  0.000  -0.614   0.000  -0.000  -2.474  -0.000   0.763  -0.001   0.000   3.765   0.001  -0.000   0.391  -0.000   0.000  -0.053
 -0.000  -0.001  -0.100   0.000  -0.000   0.000   0.001   0.229  -0.000   0.001   1.552  -0.100   0.000   0.044   0.000  -0.000
  0.000   0.000   0.017   0.000   0.000  -0.000  -0.000  -0.019  -0.000  -0.000  -0.100   0.008  -0.000  -0.001   0.000   0.000
 -0.000  -0.147  -0.000  -0.000  -0.321   0.000   0.166   0.000   0.000   0.391   0.000  -0.000   0.288   0.000   0.000  -0.036
 -0.000  -0.001   0.166   0.000  -0.000   0.000   0.001  -0.139   0.000  -0.000   0.044  -0.001   0.000   0.355   0.000  -0.000
 -0.322  -0.000   0.000  -0.147  -0.000   0.392   0.000  -0.000   0.166   0.000   0.000   0.000   0.000   0.000   0.288  -0.000
  0.000   0.029   0.000   0.000   0.048  -0.000  -0.039  -0.000  -0.000  -0.053  -0.000   0.000  -0.036  -0.000  -0.000   0.005
 -0.000   0.000  -0.018   0.000  -0.000  -0.000  -0.000   0.007  -0.000   0.000  -0.010   0.000  -0.000  -0.043   0.000   0.000
  0.048   0.000  -0.000   0.029   0.000  -0.054  -0.000   0.000  -0.039  -0.000  -0.000   0.000   0.000  -0.000  -0.036   0.000


------------------------ aborting loop because EDIFF is reached ----------------------------------------


    CHARGE:  cpu time    0.0474: real time    0.0474
    FORLOC:  cpu time    0.0004: real time    0.0004
    FORNL :  cpu time    0.0647: real time    0.0647
    STRESS:  cpu time    0.3257: real time    0.3257
    FORCOR:  cpu time    0.0140: real time    0.0140
    FORHAR:  cpu time    0.0024: real time    0.0024
    MIXING:  cpu time    0.0002: real time    0.0002
    OFIELD:  cpu time    0.0000: real time    0.0000

  FORCE on cell =-STRESS in cart. coord.  units (eV):
  Direction    XX          YY          ZZ          XY          YZ          ZX
  --------------------------------------------------------------------------------------
  Alpha Z    26.07820    26.07820    26.07820
  Ewald    5249.98459  5249.75856 -6324.25684     0.00000     0.05006     0.00000
  Hartree  5458.30295  5458.21570 -5397.00786     0.00000     0.02045     0.00000
  E(xc)    -145.39338  -145.38775  -147.18456     0.00000     0.00045    -0.00000
  Local  -11264.38502-11264.07516 11152.87482    -0.00000    -0.07285    -0.00000
  n-local   323.81101   323.83390   338.89961    -0.00000     0.00422     0.00000
  augment   -67.61647   -67.62534   -71.25299     0.00000    -0.00148    -0.00000
  Kinetic   419.21046   419.09457   421.83668    -0.00000    -0.00097     0.00000
  Fock        0.00000     0.00000     0.00000     0.00000     0.00000     0.00000
  -------------------------------------------------------------------------------------
  Total      -0.00767    -0.10732    -0.01295     0.00000    -0.00011     0.00000
  in kB      -0.03092    -0.43282    -0.05222     0.00000    -0.00046     0.00000
  external pressure =       -0.17 kB  Pullay stress =        0.00 kB


 VOLUME and BASIS-vectors are now :
 -----------------------------------------------------------------------------
  energy-cutoff  :      600.00
  volume of cell :      397.27
      direct lattice vectors                 reciprocal lattice vectors
     3.363599539  0.000000000  0.000000000     0.297300552  0.000000000  0.000000000
     0.000000000  5.831751753  0.000000000     0.000000000  0.171475063  0.000000000
     0.000000000  0.000000000 20.252588272     0.000000000  0.000000000  0.049376405

  length of vectors
     3.363599539  5.831751753 20.252588272     0.297300552  0.171475063  0.049376405


 FORCES acting on ions
    electron-ion (+dipol)            ewald-force                    non-local-force                 convergence-correction
 -----------------------------------------------------------------------------------------------
   0.167E-06 0.843E-01 -.396E+01   -.258E-06 -.829E-01 0.629E+01   -.747E-07 0.503E-03 -.233E+01   0.240E-06 -.127E-02 -.910E-05
   0.427E-06 0.843E-01 -.396E+01   -.278E-06 -.830E-01 0.629E+01   0.111E-06 0.502E-03 -.233E+01   -.129E-06 -.127E-02 -.878E-05
   0.506E-06 -.519E-01 -.466E+03   0.802E-06 0.541E-01 0.471E+03   -.544E-06 -.163E-02 -.557E+01   -.558E-06 -.129E-02 0.830E-03
   -.933E-06 -.518E-01 -.466E+03   0.213E-06 0.542E-01 0.471E+03   0.566E-06 -.163E-02 -.557E+01   0.205E-06 -.133E-02 0.818E-03
   0.809E-06 -.287E-01 0.473E+03   -.845E-06 0.288E-01 -.477E+03   -.231E-06 -.445E-03 0.459E+01   -.876E-07 0.312E-04 0.726E-04
   -.599E-06 -.287E-01 0.473E+03   0.366E-06 0.288E-01 -.477E+03   0.263E-06 -.443E-03 0.459E+01   -.693E-07 0.634E-05 0.811E-04
 -----------------------------------------------------------------------------------------------
   0.376E-06 0.748E-02 0.661E+01   0.129E-13 0.465E-15 -.568E-13   0.907E-07 -.314E-02 -.662E+01   -.399E-06 -.512E-02 0.178E-02
 
 
 POSITION                                       TOTAL-FORCE (eV/Angst)
 -----------------------------------------------------------------------------------
      1.68180      0.97165     10.26887         0.000000      0.000685     -0.000314
     -0.00000      3.88753     10.26887         0.000000      0.000685     -0.000316
      1.68180      4.85997     11.74132         0.000000     -0.000513     -0.000425
     -0.00000      1.94410     11.74132         0.000000     -0.000511     -0.000425
      1.68180      4.85992      8.36870        -0.000000     -0.000174      0.000740
     -0.00000      1.94404      8.36870        -0.000000     -0.000172      0.000740
 -----------------------------------------------------------------------------------
    total drift:                                0.000000     -0.000783     -0.000278


--------------------------------------------------------------------------------------------------------



  FREE ENERGIE OF THE ION-ELECTRON SYSTEM (eV)
  ---------------------------------------------------
  free  energy   TOTEN  =       -39.42243361 eV

  energy  without entropy=      -39.42243361  energy(sigma->0) =      -39.42243361
 
 d Force = 0.3253366E-05[-0.389E-06, 0.690E-05]  d Energy = 0.3550609E-05-0.297E-06
 d Force =-0.2109525E+00[-0.211E+00,-0.211E+00]  d Ewald  =-0.2109525E+00-0.297E-08


--------------------------------------------------------------------------------------------------------


    POTLOK:  cpu time    0.0143: real time    0.0143


--------------------------------------------------------------------------------------------------------


 Steepest descent step on ions:
 trial-energy change:   -0.000004  1 .order   -0.000003   -0.000007    0.000000
  (g-gl).g = 0.690E-05      g.g   = 0.690E-05  gl.gl    = 0.000E+00
 g(Force)  = 0.690E-05   g(Stress)= 0.000E+00 ortho     = 0.000E+00
 gamma     =   0.00000
 trial     =   1.00000
 opt step  =   0.94657  (harmonic =   0.94657) maximal distance =0.00016912
 next E    =   -39.422433   (d E  =  -0.00000)


--------------------------------------------------------------------------------------------------------


  
 reached required accuracy - stopping structural energy minimisation
     LOOP+:  cpu time    4.2875: real time    4.3718
    4ORBIT:  cpu time    0.0000: real time    0.0000

 total amount of memory used by VASP MPI-rank0    62433. kBytes
=======================================================================

   base      :      30000. kBytes
   nonl-proj :      25455. kBytes
   fftplans  :       1397. kBytes
   grid      :       2623. kBytes
   one-center:         15. kBytes
   wavefun   :       2943. kBytes
 
  
  
 General timing and accounting informations for this job:
 ========================================================
  
                  Total CPU time used (sec):       48.234
                            User time (sec):       45.283
                          System time (sec):        2.951
                         Elapsed time (sec):       48.376
  
                   Maximum memory used (kb):      173996.
                   Average memory used (kb):           0.
  
                          Minor page faults:        25002
                          Major page faults:          874
                 Voluntary context switches:         1470
