
     Program PWSCF v.6.4.1 starts on  3Sep2022 at 20:56:31 

     This program is part of the open-source Quantum ESPRESSO suite
     for quantum simulation of materials; please cite
         "P. Giannozzi et al., J. Phys.:Condens. Matter 21 395502 (2009);
         "P. Giannozzi et al., J. Phys.:Condens. Matter 29 465901 (2017);
          URL http://www.quantum-espresso.org", 
     in publications or presentations arising from this work. More details at
     http://www.quantum-espresso.org/quote

     Parallel version (MPI), running on     1 processors

     MPI processes distributed on     1 nodes
     Reading input from INCAR-scf.pw

     Current dimensions of program PWSCF are:
     Max number of different atomic species (ntypx) = 10
     Max number of k-points (npk) =  40000
     Max angular momentum in pseudopotentials (lmaxx) =  3

     Subspace diagonalization in iterative solution of the eigenvalue problem:
     a serial algorithm will be used

     Found symmetry operation: I + (  0.0000  0.2000  0.0000)
     This is a supercell, fractional translations are disabled
     Message from routine setup:
     DEPRECATED: symmetry with ibrav=0, use correct ibrav instead
 
     G-vector sticks info
     --------------------
     sticks:   dense  smooth     PW     G-vecs:    dense   smooth      PW
     Sum       30765   14765   3817              5515725  1834423  241099
 


     bravais-lattice index     =            0
     lattice parameter (alat)  =      32.7268  a.u.
     unit-cell volume          =   29213.4031 (a.u.)^3
     number of atoms/cell      =           80
     number of atomic types    =            2
     number of electrons       =       320.00
     number of Kohn-Sham states=          192
     kinetic-energy cutoff     =      60.0000  Ry
     charge density cutoff     =     500.0000  Ry
     convergence threshold     =      1.0E-10
     mixing beta               =       0.7000
     number of iterations used =            8  plain     mixing
     Exchange-correlation      = PBE ( 1  4  3  4 0 0)

     celldm(1)=  32.726783  celldm(2)=   0.000000  celldm(3)=   0.000000
     celldm(4)=   0.000000  celldm(5)=   0.000000  celldm(6)=   0.000000

     crystal axes: (cart. coord. in units of alat)
               a(1) = (   1.000000   0.000000   0.000000 )  
               a(2) = (   0.000000   0.721683   0.000000 )  
               a(3) = (   0.000000   0.000000   1.154850 )  

     reciprocal axes: (cart. coord. in units 2 pi/alat)
               b(1) = (  1.000000  0.000000  0.000000 )  
               b(2) = (  0.000000  1.385649  0.000000 )  
               b(3) = (  0.000000  0.000000  0.865913 )  


     PseudoPot. # 1 for B  read from file:
     ./B_pbe_v1.01.uspp.F.UPF
     MD5 check sum: d081ebb89d0c768e112975f650467a00
     Pseudo is Ultrasoft + core correction, Zval =  3.0
     Generated by new atomic code, or converted to UPF format
     Using radial grid of  781 points,  4 beta functions with: 
                l(1) =   0
                l(2) =   0
                l(3) =   1
                l(4) =   1
     Q(r) pseudized with  8 coefficients,  rinner =    1.100   1.100   1.100


     PseudoPot. # 2 for N  read from file:
     ./N.oncvpsp.upf
     MD5 check sum: 563d65bfb082928f0c9eb97172f6c357
     Pseudo is Norm-conserving + core correction, Zval =  5.0
     Generated using ONCVPSP code by D. R. Hamann
     Using radial grid of 1058 points,  4 beta functions with: 
                l(1) =   0
                l(2) =   0
                l(3) =   1
                l(4) =   1

     atomic species   valence    mass     pseudopotential
        B              3.00    10.81000     B ( 1.00)
        N              5.00    14.00674     N ( 1.00)

      4 Sym. Ops. (no inversion) found



   Cartesian axes

     site n.     atom                  positions (alat units)
         1           B   tau(   1) = (   0.0833360   0.0000000   0.5774250  )
         2           B   tau(   2) = (   0.0833360   0.1443367   0.5774250  )
         3           B   tau(   3) = (   0.0833360   0.2886733   0.5774250  )
         4           B   tau(   4) = (   0.0833360   0.4330100   0.5774250  )
         5           B   tau(   5) = (   0.0833360   0.5773466   0.5774250  )
         6           B   tau(   6) = (   0.3333360   0.0000000   0.5774250  )
         7           B   tau(   7) = (   0.3333360   0.1443367   0.5774250  )
         8           B   tau(   8) = (   0.3333360   0.2886733   0.5774250  )
         9           B   tau(   9) = (   0.3333360   0.4330100   0.5774250  )
        10           B   tau(  10) = (   0.3333360   0.5773466   0.5774250  )
        11           B   tau(  11) = (   0.5833361   0.0000000   0.5774250  )
        12           B   tau(  12) = (   0.5833361   0.1443367   0.5774250  )
        13           B   tau(  13) = (   0.5833361   0.2886733   0.5774250  )
        14           B   tau(  14) = (   0.5833361   0.4330100   0.5774250  )
        15           B   tau(  15) = (   0.5833361   0.5773466   0.5774250  )
        16           B   tau(  16) = (   0.8333361   0.0000000   0.5774250  )
        17           B   tau(  17) = (   0.8333361   0.1443367   0.5774250  )
        18           B   tau(  18) = (   0.8333361   0.2886733   0.5774250  )
        19           B   tau(  19) = (   0.8333361   0.4330100   0.5774250  )
        20           B   tau(  20) = (   0.8333361   0.5773466   0.5774250  )
        21           B   tau(  21) = (   0.2083360   0.0721683   0.5774250  )
        22           B   tau(  22) = (   0.2083360   0.2165050   0.5774250  )
        23           B   tau(  23) = (   0.2083360   0.3608416   0.5774250  )
        24           B   tau(  24) = (   0.2083360   0.5051783   0.5774250  )
        25           B   tau(  25) = (   0.2083360   0.6495149   0.5774250  )
        26           B   tau(  26) = (   0.4583360   0.0721683   0.5774250  )
        27           B   tau(  27) = (   0.4583360   0.2165050   0.5774250  )
        28           B   tau(  28) = (   0.4583360   0.3608416   0.5774250  )
        29           B   tau(  29) = (   0.4583360   0.5051783   0.5774250  )
        30           B   tau(  30) = (   0.4583360   0.6495149   0.5774250  )
        31           B   tau(  31) = (   0.7083360   0.0721683   0.5774250  )
        32           B   tau(  32) = (   0.7083360   0.2165050   0.5774250  )
        33           B   tau(  33) = (   0.7083360   0.3608416   0.5774250  )
        34           B   tau(  34) = (   0.7083360   0.5051783   0.5774250  )
        35           B   tau(  35) = (   0.7083360   0.6495149   0.5774250  )
        36           B   tau(  36) = (   0.9583360   0.0721683   0.5774250  )
        37           B   tau(  37) = (   0.9583360   0.2165050   0.5774250  )
        38           B   tau(  38) = (   0.9583360   0.3608416   0.5774250  )
        39           B   tau(  39) = (   0.9583360   0.5051783   0.5774250  )
        40           B   tau(  40) = (   0.9583360   0.6495149   0.5774250  )
        41           N   tau(  41) = (   0.0000036   0.0000000   0.5774250  )
        42           N   tau(  42) = (   0.0000036   0.1443367   0.5774250  )
        43           N   tau(  43) = (   0.0000036   0.2886733   0.5774250  )
        44           N   tau(  44) = (   0.0000036   0.4330100   0.5774250  )
        45           N   tau(  45) = (   0.0000036   0.5773466   0.5774250  )
        46           N   tau(  46) = (   0.2500036   0.0000000   0.5774250  )
        47           N   tau(  47) = (   0.2500036   0.1443367   0.5774250  )
        48           N   tau(  48) = (   0.2500036   0.2886733   0.5774250  )
        49           N   tau(  49) = (   0.2500036   0.4330100   0.5774250  )
        50           N   tau(  50) = (   0.2500036   0.5773466   0.5774250  )
        51           N   tau(  51) = (   0.5000036   0.0000000   0.5774250  )
        52           N   tau(  52) = (   0.5000036   0.1443367   0.5774250  )
        53           N   tau(  53) = (   0.5000036   0.2886733   0.5774250  )
        54           N   tau(  54) = (   0.5000036   0.4330100   0.5774250  )
        55           N   tau(  55) = (   0.5000036   0.5773466   0.5774250  )
        56           N   tau(  56) = (   0.7500036   0.0000000   0.5774250  )
        57           N   tau(  57) = (   0.7500036   0.1443367   0.5774250  )
        58           N   tau(  58) = (   0.7500036   0.2886733   0.5774250  )
        59           N   tau(  59) = (   0.7500036   0.4330100   0.5774250  )
        60           N   tau(  60) = (   0.7500036   0.5773466   0.5774250  )
        61           N   tau(  61) = (   0.1250037   0.0721683   0.5774250  )
        62           N   tau(  62) = (   0.1250037   0.2165050   0.5774250  )
        63           N   tau(  63) = (   0.1250037   0.3608416   0.5774250  )
        64           N   tau(  64) = (   0.1250037   0.5051783   0.5774250  )
        65           N   tau(  65) = (   0.1250037   0.6495149   0.5774250  )
        66           N   tau(  66) = (   0.3750036   0.0721683   0.5774250  )
        67           N   tau(  67) = (   0.3750036   0.2165050   0.5774250  )
        68           N   tau(  68) = (   0.3750036   0.3608416   0.5774250  )
        69           N   tau(  69) = (   0.3750036   0.5051783   0.5774250  )
        70           N   tau(  70) = (   0.3750036   0.6495149   0.5774250  )
        71           N   tau(  71) = (   0.6250036   0.0721683   0.5774250  )
        72           N   tau(  72) = (   0.6250036   0.2165050   0.5774250  )
        73           N   tau(  73) = (   0.6250036   0.3608416   0.5774250  )
        74           N   tau(  74) = (   0.6250036   0.5051783   0.5774250  )
        75           N   tau(  75) = (   0.6250036   0.6495149   0.5774250  )
        76           N   tau(  76) = (   0.8750036   0.0721683   0.5774250  )
        77           N   tau(  77) = (   0.8750036   0.2165050   0.5774250  )
        78           N   tau(  78) = (   0.8750036   0.3608416   0.5774250  )
        79           N   tau(  79) = (   0.8750036   0.5051783   0.5774250  )
        80           N   tau(  80) = (   0.8750036   0.6495149   0.5774250  )

     number of k points=     9  gaussian smearing, width (Ry)=  0.0100
                       cart. coord. in units 2pi/alat
        k(    1) = (   0.0000000   0.0000000   0.0000000), wk =   0.0800000
        k(    2) = (   0.0000000   0.2771299   0.0000000), wk =   0.1600000
        k(    3) = (   0.0000000   0.5542598   0.0000000), wk =   0.1600000
        k(    4) = (   0.2000000   0.0000000   0.0000000), wk =   0.1600000
        k(    5) = (   0.2000000   0.2771299   0.0000000), wk =   0.3200000
        k(    6) = (   0.2000000   0.5542598   0.0000000), wk =   0.3200000
        k(    7) = (   0.4000000   0.0000000   0.0000000), wk =   0.1600000
        k(    8) = (   0.4000000   0.2771299   0.0000000), wk =   0.3200000
        k(    9) = (   0.4000000   0.5542598   0.0000000), wk =   0.3200000

     Dense  grid:  5515725 G-vectors     FFT dimensions: ( 240, 180, 270)

     Smooth grid:  1834423 G-vectors     FFT dimensions: ( 162, 120, 192)

     Estimated max dynamical RAM per process >      19.81 GB
