 running on  192 total cores
 distrk:  each k-point on  192 cores,    1 groups
 distr:  one band on   24 cores,    8 groups
 using from now: INCAR     
 vasp.5.4.4.18Apr17-6-g9f103f2a35 (build Oct 01 2024 10:11:53) complex          
  
 POSCAR found type information on POSCAR  Se Sn
 POSCAR found :  2 types and       4 ions
 scaLAPACK will be used
 WARNING: PSMAXN for non-local potential too small
 LDA part: xc-table for Pade appr. of Perdew
 found WAVECAR, reading the header
  number of k-points has changed, file:    41 present:    40
  trying to continue reading WAVECAR, but it might fail
 WARNING: stress and forces are not correct
 POSCAR, INCAR and KPOINTS ok, starting setup
 FFT: planning ...
 reading WAVECAR
 the WAVECAR file was read successfully
 charge-density read from file: unknown                                 
 entering main loop
       N       E                     dE             d eps       ncg     rms          rms(c)
DAV:   1    -0.120920987606E+02   -0.12092E+02   -0.60763E+02  1784   0.683E+01
DAV:   2    -0.162128405948E+02   -0.41207E+01   -0.40875E+01  1584   0.239E+01
DAV:   3    -0.162658173098E+02   -0.52977E-01   -0.52946E-01  1752   0.325E+00
DAV:   4    -0.162664704193E+02   -0.65311E-03   -0.65308E-03  1608   0.361E-01
DAV:   5    -0.162664881609E+02   -0.17742E-04   -0.17741E-04  1664   0.574E-02
DAV:   6    -0.162664886741E+02   -0.51320E-06   -0.51324E-06  1432   0.889E-03
   1 F= -.16266489E+02 E0= -.16266489E+02  d E =0.000000E+00
 writing wavefunctions
