 vasp.5.4.4.18Apr17-6-g9f103f2a35 (build Feb 21 2024 19:30:58) complex          
  
 executed on              Shaheen date 2024.10.10  16:54:40
 running on  192 total cores
 distrk:  each k-point on  192 cores,    1 groups
 distr:  one band on NCORES_PER_BAND=  24 cores,    8 groups


--------------------------------------------------------------------------------------------------------


 INCAR:
 POTCAR:    PAW_PBE S 06Sep2000                   
 POTCAR:    PAW_PBE Pb 08Apr2002                  
 POTCAR:    PAW_PBE S 06Sep2000                   
   VRHFIN =S : s2p4                                                             
   LEXCH  = PE                                                                  
   EATOM  =   276.8230 eV,   20.3459 Ry                                         
                                                                                
   TITEL  = PAW_PBE S 06Sep2000                                                 
   LULTRA =        F    use ultrasoft PP ?                                      
   IUNSCR =        1    unscreen: 0-lin 1-nonlin 2-no                           
   RPACOR =    1.500    partial core radius                                     
   POMASS =   32.066; ZVAL   =    6.000    mass and valenz                      
   RCORE  =    1.900    outmost cutoff radius                                   
   RWIGS  =    2.200; RWIGS  =    1.164    wigner-seitz radius (au A)           
   ENMAX  =  258.689; ENMIN  =  194.016 eV                                      
   ICORE  =        2    local potential                                         
   LCOR   =        T    correct aug charges                                     
   LPAW   =        T    paw PP                                                  
   EAUG   =  335.092                                                            
   DEXC   =    0.000                                                            
   RMAX   =    1.942    core radius for proj-oper                               
   RAUG   =    1.300    factor for augmentation sphere                          
   RDEP   =    1.954    radius for radial grids                                 
   RDEPT  =    1.744    core radius for aug-charge                              
                                                                                
   Atomic configuration                                                         
    6 entries                                                                   
     n  l   j            E        occ.                                          
     1  0  0.50     -2405.8406   2.0000                                         
     2  0  0.50      -211.7007   2.0000                                         
     2  1  1.50      -156.4958   6.0000                                         
     3  0  0.50       -17.2562   2.0000                                         
     3  1  0.50        -7.0085   4.0000                                         
     3  2  1.50        -6.8029   0.0000                                         
   Description                                                                  
     l       E           TYP  RCUT    TYP  RCUT                                 
     0    -17.2561641     23  1.900                                             
     0    -15.8743224     23  1.900                                             
     1     -7.0085400     23  1.900                                             
     1     -2.7779785     23  1.900                                             
     2     -6.8029130     23  1.900                                             
  local pseudopotential read in
  partial core-charges read in
  partial kinetic energy density read in
  atomic valenz-charges read in
  non local Contribution for L=           0  read in
    real space projection operators read in
  non local Contribution for L=           0  read in
    real space projection operators read in
  non local Contribution for L=           1  read in
    real space projection operators read in
  non local Contribution for L=           1  read in
    real space projection operators read in
    PAW grid and wavefunctions read in
 
   number of l-projection  operators is LMAX  =           4
   number of lm-projection operators is LMMAX =           8
 
 POTCAR:    PAW_PBE Pb 08Apr2002                  
   VRHFIN =Pb:                                                                  
   LEXCH  = PE                                                                  
   EATOM  =    96.9868 eV,    7.1283 Ry                                         
                                                                                
   TITEL  = PAW_PBE Pb 08Apr2002                                                
   LULTRA =        F    use ultrasoft PP ?                                      
   IUNSCR =        1    unscreen: 0-lin 1-nonlin 2-no                           
   RPACOR =    2.200    partial core radius                                     
   POMASS =  207.200; ZVAL   =    4.000    mass and valenz                      
   RCORE  =    3.100    outmost cutoff radius                                   
   RWIGS  =    3.260; RWIGS  =    1.725    wigner-seitz radius (au A)           
   ENMAX  =   97.973; ENMIN  =   73.480 eV                                      
   ICORE  =        3    local potential                                         
   LCOR   =        T    correct aug charges                                     
   LPAW   =        T    paw PP                                                  
   EAUG   =  234.873                                                            
   DEXC   =    0.000                                                            
   RMAX   =    3.158    core radius for proj-oper                               
   RAUG   =    1.300    factor for augmentation sphere                          
   RDEP   =    3.202    radius for radial grids                                 
   RDEPT  =    2.659    core radius for aug-charge                              
                                                                                
   Atomic configuration                                                         
   17 entries                                                                   
     n  l   j            E        occ.                                          
     1  0  0.50    -88091.8466   2.0000                                         
     2  0  0.50    -15753.4197   2.0000                                         
     2  1  1.50    -13508.1797   6.0000                                         
     3  0  0.50     -3781.7194   2.0000                                         
     3  1  1.50     -3138.2529   6.0000                                         
     3  2  2.50     -2483.2977  10.0000                                         
     4  0  0.50      -856.2895   2.0000                                         
     4  1  1.50      -645.4943   6.0000                                         
     4  2  2.50      -401.8768  10.0000                                         
     4  3  3.50      -132.9059  14.0000                                         
     5  0  0.50      -144.0950   2.0000                                         
     5  1  1.50       -85.7879   6.0000                                         
     5  2  2.50       -21.1769  10.0000                                         
     6  0  0.50       -12.0372   2.0000                                         
     6  1  1.50        -3.4971   2.0000                                         
     6  2  2.50        -1.3606   0.0000                                         
     5  3  2.50        -2.7212   0.0000                                         
   Description                                                                  
     l       E           TYP  RCUT    TYP  RCUT                                 
     0    -12.0371566     23  3.100                                             
     0    -13.3977392     23  3.100                                             
     1     -3.4971341     23  3.100                                             
     1     -5.4423304     23  3.100                                             
     2     -1.3605826     23  3.100                                             
     3     -1.3605826     23  3.100                                             
  local pseudopotential read in
  partial core-charges read in
  partial kinetic energy density read in
  atomic valenz-charges read in
  non local Contribution for L=           0  read in
    real space projection operators read in
  non local Contribution for L=           0  read in
    real space projection operators read in
  non local Contribution for L=           1  read in
    real space projection operators read in
  non local Contribution for L=           1  read in
    real space projection operators read in
  non local Contribution for L=           2  read in
    real space projection operators read in
    PAW grid and wavefunctions read in
 
   number of l-projection  operators is LMAX  =           5
   number of lm-projection operators is LMMAX =          13
 
 WARNING: PSMAXN for non-local potential too small
          PSMAXN should be >   12.5490833729506       NTYP=           2
  PAW_PBE S 06Sep2000                   :
 energy of atom  1       EATOM= -276.8230
 kinetic energy error for atom=    0.0009 (will be added to EATOM!!)
  PAW_PBE Pb 08Apr2002                  :
 energy of atom  2       EATOM=  -96.9868
 kinetic energy error for atom=    0.0000 (will be added to EATOM!!)
 
 
 POSCAR: S  Pb                                   
  positions in direct lattice
  No initial velocities read in
 exchange correlation table for  LEXCH =        8
   RHO(1)=    0.500       N(1)  =     2000
   RHO(2)=  100.500       N(2)  =     4000
 


--------------------------------------------------------------------------------------------------------


 ion  position               nearest neighbor table
   1  0.500  0.389  0.604-   7 2.82   7 2.82  11 2.90  10 3.15  10 3.15
   2  0.500  0.389  0.396-   8 2.82   8 2.82  11 2.90   9 3.15   9 3.15
   3  0.500  0.889  0.396-   9 2.82   9 2.82  12 2.90   8 3.15   8 3.15
   4  0.500  0.889  0.604-  10 2.82  10 2.82  12 2.90   7 3.15   7 3.15
   5  1.000  0.651  0.500-   9 2.89  10 2.89  11 2.96  11 2.96  12 3.00  12 3.00
   6  1.000  0.151  0.500-   8 2.89   7 2.89  12 2.96  12 2.96  11 3.00  11 3.00
   7  1.000  0.166  0.604-   1 2.82   1 2.82   6 2.89   4 3.15   4 3.15  11 4.10  11 4.10
   8  0.000  0.166  0.396-   2 2.82   2 2.82   6 2.89   3 3.15   3 3.15  11 4.10  11 4.10
   9  1.000  0.666  0.396-   3 2.82   3 2.82   5 2.89   2 3.15   2 3.15  12 4.10  12 4.10
  10  0.000  0.666  0.604-   4 2.82   4 2.82   5 2.89   1 3.15   1 3.15  12 4.10  12 4.10
  11  0.500  0.405  0.500-   2 2.90   1 2.90   5 2.96   5 2.96   6 3.00   6 3.00   8 4.10   7 4.10
                             8 4.10   7 4.10
  12  0.500  0.905  0.500-   3 2.90   4 2.90   6 2.96   6 2.96   5 3.00   5 3.00   9 4.10  10 4.10
                             9 4.10  10 4.10
 

IMPORTANT INFORMATION: All symmetrisations will be switched off!
NOSYMM: (Re-)initialisation of all symmetry stuff for point group C_1.

 
 
 KPOINTS: K-Spacing Value to Generate K-Mesh: 0.02

Automatic generation of k-mesh.
Space group operators:
 irot       det(A)        alpha          n_x          n_y          n_z        tau_x        tau_y        tau_z
    1     1.000000     0.000000     1.000000     0.000000     0.000000     0.000000     0.000000     0.000000
 
 Subroutine IBZKPT returns following result:
 ===========================================
 
 Found     25 irreducible k-points:
 
 Following reciprocal coordinates:
            Coordinates               Weight
  0.050000  0.000000  0.000000      2.000000
  0.150000  0.000000  0.000000      2.000000
  0.250000  0.000000  0.000000      2.000000
  0.350000  0.000000  0.000000      2.000000
  0.450000  0.000000  0.000000      2.000000
  0.050000  0.200000  0.000000      2.000000
  0.150000  0.200000  0.000000      2.000000
  0.250000  0.200000  0.000000      2.000000
  0.350000  0.200000  0.000000      2.000000
  0.450000  0.200000  0.000000      2.000000
 -0.450000  0.200000  0.000000      2.000000
 -0.350000  0.200000  0.000000      2.000000
 -0.250000  0.200000  0.000000      2.000000
 -0.150000  0.200000  0.000000      2.000000
 -0.050000  0.200000  0.000000      2.000000
  0.050000  0.400000  0.000000      2.000000
  0.150000  0.400000  0.000000      2.000000
  0.250000  0.400000  0.000000      2.000000
  0.350000  0.400000  0.000000      2.000000
  0.450000  0.400000  0.000000      2.000000
 -0.450000  0.400000  0.000000      2.000000
 -0.350000  0.400000  0.000000      2.000000
 -0.250000  0.400000  0.000000      2.000000
 -0.150000  0.400000  0.000000      2.000000
 -0.050000  0.400000  0.000000      2.000000
 
 Following cartesian coordinates:
            Coordinates               Weight
  0.011955  0.000000  0.000000      2.000000
  0.035866  0.000000  0.000000      2.000000
  0.059776  0.000000  0.000000      2.000000
  0.083687  0.000000  0.000000      2.000000
  0.107597  0.000000  0.000000      2.000000
  0.011955  0.023555  0.000000      2.000000
  0.035866  0.023555  0.000000      2.000000
  0.059776  0.023555  0.000000      2.000000
  0.083687  0.023555  0.000000      2.000000
  0.107597  0.023555  0.000000      2.000000
 -0.107597  0.023555  0.000000      2.000000
 -0.083687  0.023555  0.000000      2.000000
 -0.059776  0.023555  0.000000      2.000000
 -0.035866  0.023555  0.000000      2.000000
 -0.011955  0.023555  0.000000      2.000000
  0.011955  0.047110  0.000000      2.000000
  0.035866  0.047110  0.000000      2.000000
  0.059776  0.047110  0.000000      2.000000
  0.083687  0.047110  0.000000      2.000000
  0.107597  0.047110  0.000000      2.000000
 -0.107597  0.047110  0.000000      2.000000
 -0.083687  0.047110  0.000000      2.000000
 -0.059776  0.047110  0.000000      2.000000
 -0.035866  0.047110  0.000000      2.000000
 -0.011955  0.047110  0.000000      2.000000
 
 
 Subroutine IBZKPT_HF returns following result:
 ==============================================
 
 Found     50 k-points in 1st BZ
 the following     50 k-points will be used (e.g. in the exchange kernel)
 Following reciprocal coordinates:   # in IRBZ
  0.050000  0.000000  0.000000    0.02000000   1 t-inv F
  0.150000  0.000000  0.000000    0.02000000   2 t-inv F
  0.250000  0.000000  0.000000    0.02000000   3 t-inv F
  0.350000  0.000000  0.000000    0.02000000   4 t-inv F
  0.450000  0.000000  0.000000    0.02000000   5 t-inv F
  0.050000  0.200000  0.000000    0.02000000   6 t-inv F
  0.150000  0.200000  0.000000    0.02000000   7 t-inv F
  0.250000  0.200000  0.000000    0.02000000   8 t-inv F
  0.350000  0.200000  0.000000    0.02000000   9 t-inv F
  0.450000  0.200000  0.000000    0.02000000  10 t-inv F
 -0.450000  0.200000  0.000000    0.02000000  11 t-inv F
 -0.350000  0.200000  0.000000    0.02000000  12 t-inv F
 -0.250000  0.200000  0.000000    0.02000000  13 t-inv F
 -0.150000  0.200000  0.000000    0.02000000  14 t-inv F
 -0.050000  0.200000  0.000000    0.02000000  15 t-inv F
  0.050000  0.400000  0.000000    0.02000000  16 t-inv F
  0.150000  0.400000  0.000000    0.02000000  17 t-inv F
  0.250000  0.400000  0.000000    0.02000000  18 t-inv F
  0.350000  0.400000  0.000000    0.02000000  19 t-inv F
  0.450000  0.400000  0.000000    0.02000000  20 t-inv F
 -0.450000  0.400000  0.000000    0.02000000  21 t-inv F
 -0.350000  0.400000  0.000000    0.02000000  22 t-inv F
 -0.250000  0.400000  0.000000    0.02000000  23 t-inv F
 -0.150000  0.400000  0.000000    0.02000000  24 t-inv F
 -0.050000  0.400000  0.000000    0.02000000  25 t-inv F
 -0.050000  0.000000  0.000000    0.02000000   1 t-inv T
 -0.150000  0.000000  0.000000    0.02000000   2 t-inv T
 -0.250000  0.000000  0.000000    0.02000000   3 t-inv T
 -0.350000  0.000000  0.000000    0.02000000   4 t-inv T
 -0.450000  0.000000  0.000000    0.02000000   5 t-inv T
 -0.050000 -0.200000  0.000000    0.02000000   6 t-inv T
 -0.150000 -0.200000  0.000000    0.02000000   7 t-inv T
 -0.250000 -0.200000  0.000000    0.02000000   8 t-inv T
 -0.350000 -0.200000  0.000000    0.02000000   9 t-inv T
 -0.450000 -0.200000  0.000000    0.02000000  10 t-inv T
  0.450000 -0.200000  0.000000    0.02000000  11 t-inv T
  0.350000 -0.200000  0.000000    0.02000000  12 t-inv T
  0.250000 -0.200000  0.000000    0.02000000  13 t-inv T
  0.150000 -0.200000  0.000000    0.02000000  14 t-inv T
  0.050000 -0.200000  0.000000    0.02000000  15 t-inv T
 -0.050000 -0.400000  0.000000    0.02000000  16 t-inv T
 -0.150000 -0.400000  0.000000    0.02000000  17 t-inv T
 -0.250000 -0.400000  0.000000    0.02000000  18 t-inv T
 -0.350000 -0.400000  0.000000    0.02000000  19 t-inv T
 -0.450000 -0.400000  0.000000    0.02000000  20 t-inv T
  0.450000 -0.400000  0.000000    0.02000000  21 t-inv T
  0.350000 -0.400000  0.000000    0.02000000  22 t-inv T
  0.250000 -0.400000  0.000000    0.02000000  23 t-inv T
  0.150000 -0.400000  0.000000    0.02000000  24 t-inv T
  0.050000 -0.400000  0.000000    0.02000000  25 t-inv T


--------------------------------------------------------------------------------------------------------




 Dimension of arrays:
   k-points           NKPTS =     25   k-points in BZ     NKDIM =     25   number of bands    NBANDS=     40
   number of dos      NEDOS =    301   number of ions     NIONS =     12
   non local maximal  LDIM  =      5   non local SUM 2l+1 LMDIM =     13
   total plane-waves  NPLWV = 564480
   max r-space proj   IRMAX =      1   max aug-charges    IRDMAX=  65589
   dimension x,y,z NGX =    36 NGY =   70 NGZ =  224
   dimension x,y,z NGXF=    72 NGYF=  140 NGZF=  448
   support grid    NGXF=    72 NGYF=  140 NGZF=  448
   ions per type =               6   6
   NGX,Y,Z   is equivalent  to a cutoff of  14.31, 13.71, 13.39 a.u.
   NGXF,Y,Z  is equivalent  to a cutoff of  28.62, 27.41, 26.77 a.u.

 SYSTEM =  unknown system                          
 POSCAR =  S  Pb                                   

 Startparameter for this run:
   NWRITE =      2    write-flag & timer
   PREC   = accura    normal or accurate (medium, high low for compatibility)
   ISTART =      0    job   : 0-new  1-cont  2-samecut
   ICHARG =      2    charge: 1-file 2-atom 10-const
   ISPIN  =      1    spin polarized calculation?
   LNONCOLLINEAR =      F non collinear calculations
   LSORBIT =      F    spin-orbit coupling
   INIWAV =      1    electr: 0-lowe 1-rand  2-diag
   LASPH  =      F    aspherical Exc in radial PAW
   METAGGA=      F    non-selfconsistent MetaGGA calc.

 Electronic Relaxation 1
   ENCUT  =  600.0 eV  44.10 Ry    6.64 a.u.   8.35 16.96 55.56*2*pi/ulx,y,z
   ENINI  =  600.0     initial cutoff
   ENAUG  =  335.1 eV  augmentation charge cutoff
   NELM   =     60;   NELMIN=  2; NELMDL= -5     # of ELM steps 
   EDIFF  = 0.1E-05   stopping-criterion for ELM
   LREAL  =      F    real-space projection
   NLSPLINE    = F    spline interpolate recip. space projectors
   LCOMPAT=      F    compatible to vasp.4.4
   GGA_COMPAT  = T    GGA compatible to vasp.4.4-vasp.4.6
   LMAXPAW     = -100 max onsite density
   LMAXMIX     =    2 max onsite mixed and CHGCAR
   VOSKOWN=      0    Vosko Wilk Nusair interpolation
   ROPT   =    0.00000   0.00000
 Ionic relaxation
   EDIFFG = -.1E-02   stopping-criterion for IOM
   NSW    =      1    number of steps for IOM
   NBLOCK =      1;   KBLOCK =      1    inner block; outer block 
   IBRION =      8    ionic relax: 0-MD 1-quasi-New 2-CG
   NFREE  =      0    steps in history (QN), initial steepest desc. (CG)
   ISIF   =      2    stress and relaxation
   IWAVPR =     11    prediction:  0-non 1-charg 2-wave 3-comb
   ISYM   =      0    0-nonsym 1-usesym 2-fastsym
   LCORR  =      T    Harris-Foulkes like correction to forces

   POTIM  = 0.5000    time-step for ionic-motion
   TEIN   =    0.0    initial temperature
   TEBEG  =    0.0;   TEEND  =   0.0 temperature during run
   SMASS  =  -3.00    Nose mass-parameter (am)
   estimated Nose-frequenzy (Omega)   =  0.10E-29 period in steps =****** mass=  -0.400E-27a.u.
   SCALEE = 1.0000    scale energy and forces
   NPACO  =    256;   APACO  = 16.0  distance and # of slots for P.C.
   PSTRESS=    0.0 pullay stress

  Mass of Ions in am
   POMASS =  32.07207.20
  Ionic Valenz
   ZVAL   =   6.00  4.00
  Atomic Wigner-Seitz radii
   RWIGS  =  -1.00 -1.00
  virtual crystal weights 
   VCA    =   1.00  1.00
   NELECT =      60.0000    total number of electrons
   NUPDOWN=      -1.0000    fix difference up-down

 DOS related values:
   EMIN   =  10.00;   EMAX   =-10.00  energy-range for DOS
   EFERMI =   0.00
   ISMEAR =     0;   SIGMA  =   0.10  broadening in eV -4-tet -1-fermi 0-gaus

 Electronic relaxation 2 (details)
   IALGO  =     38    algorithm
   LDIAG  =      T    sub-space diagonalisation (order eigenvalues)
   LSUBROT=      F    optimize rotation matrix (better conditioning)
   TURBO    =      0    0=normal 1=particle mesh
   IRESTART =      0    0=no restart 2=restart with 2 vectors
   NREBOOT  =      0    no. of reboots
   NMIN     =      0    reboot dimension
   EREF     =   0.00    reference energy to select bands
   IMIX   =      4    mixing-type and parameters
     AMIX     =   0.40;   BMIX     =  1.00
     AMIX_MAG =   1.60;   BMIX_MAG =  1.00
     AMIN     =   0.10
     WC   =   100.;   INIMIX=   1;  MIXPRE=   1;  MAXMIX= -45

 Intra band minimization:
   WEIMIN = 0.0010     energy-eigenvalue tresh-hold
   EBREAK =  0.62E-08  absolut break condition
   DEPER  =   0.30     relativ break condition  

   TIME   =   0.40     timestep for ELM

  volume/ion in A,a.u.               =      82.32       555.49
  Fermi-wavevector in a.u.,A,eV,Ry     =   0.643533  1.216102  5.634651  0.414135
  Thomas-Fermi vector in A             =   1.710564
 
 Write flags
   LWAVE        =      T    write WAVECAR
   LDOWNSAMPLE  =      F    k-point downsampling of WAVECAR
   LCHARG       =      T    write CHGCAR
   LVTOT        =      F    write LOCPOT, total local potential
   LVHAR        =      F    write LOCPOT, Hartree potential only
   LELF         =      F    write electronic localiz. function (ELF)
   LORBIT       =      0    0 simple, 1 ext, 2 COOP (PROOUT), +10 PAW based schemes


 Dipole corrections
   LMONO  =      F    monopole corrections only (constant potential shift)
   LDIPOL =      T    correct potential (dipole corrections)
   IDIPOL =      3    1-x, 2-y, 3-z, 4-all directions 
   EPSILON=  1.0000000 bulk dielectric constant

 Exchange correlation treatment:
   GGA     =    PE    GGA type
   LEXCH   =     8    internal setting for exchange type
   VOSKOWN=      0    Vosko Wilk Nusair interpolation
   LHFCALC =     F    Hartree Fock is set to
   LHFONE  =     F    Hartree Fock one center treatment
   AEXX    =    0.0000 exact exchange contribution

 Linear response parameters
   LEPSILON=     T    determine dielectric tensor
   LRPA    =     F    only Hartree local field effects (RPA)
   LNABLA  =     F    use nabla operator in PAW spheres
   LVEL    =     F    velocity operator in full k-point grid
   LINTERFAST=   F  fast interpolation
   KINTER  =     0    interpolate to denser k-point grid
   CSHIFT  =0.1000    complex shift for real part using Kramers Kronig
   OMEGAMAX=  -1.0    maximum frequency
   DEG_THRESHOLD= 0.2000000E-02 threshold for treating states as degnerate
   RTIME   =   -0.100 relaxation time in fs
  (WPLASMAI=    0.000 imaginary part of plasma frequency in eV, 0.658/RTIME)
   DFIELD  = 0.0000000 0.0000000 0.0000000 field for delta impulse in time
 
 Orbital magnetization related:
   ORBITALMAG=     F  switch on orbital magnetization
   LCHIMAG   =     F  perturbation theory with respect to B field
   DQ        =  0.001000  dq finite difference perturbation B field
   LLRAUG    =     F  two centre corrections for induced B field



--------------------------------------------------------------------------------------------------------


 linear response using symmetry
 charge density and potential will be updated during run
 non-spin polarized calculation
 Variant of blocked Davidson
 Davidson routine will perform the subspace rotation
 perform sub-space diagonalisation
    after iterative eigenvector-optimisation
 modified Broyden-mixing scheme, WC =      100.0
 initial mixing is a Kerker type mixing with AMIX =  0.4000 and BMIX =      1.0000
 Hartree-type preconditioning will be used
 using additional bands           10
 reciprocal scheme for non local part
 use partial core corrections
 calculate Harris-corrections to forces 
   (improved forces if not selfconsistent)
 use gradient corrections 
 use of overlap-Matrix (Vanderbilt PP)
 Gauss-broadening in eV      SIGMA  =   0.10


--------------------------------------------------------------------------------------------------------


  energy-cutoff  :      600.00
  volume of cell :      987.79
      direct lattice vectors                 reciprocal lattice vectors
     4.182267013  0.000000000  0.000000000     0.239104772  0.000000000  0.000000000
     0.000000000  8.490762080  0.000000000     0.000000000  0.117775058  0.000000000
     0.000000000  0.000000000 27.816604850     0.000000000  0.000000000  0.035949750

  length of vectors
     4.182267013  8.490762080 27.816604850     0.239104772  0.117775058  0.035949750


 
 k-points in units of 2pi/SCALE and weight: K-Spacing Value to Generate K-Mesh: 0.02
   0.01195524  0.00000000  0.00000000       0.040
   0.03586572  0.00000000  0.00000000       0.040
   0.05977619  0.00000000  0.00000000       0.040
   0.08368667  0.00000000  0.00000000       0.040
   0.10759715  0.00000000  0.00000000       0.040
   0.01195524  0.02355501  0.00000000       0.040
   0.03586572  0.02355501  0.00000000       0.040
   0.05977619  0.02355501  0.00000000       0.040
   0.08368667  0.02355501  0.00000000       0.040
   0.10759715  0.02355501  0.00000000       0.040
  -0.10759715  0.02355501  0.00000000       0.040
  -0.08368667  0.02355501  0.00000000       0.040
  -0.05977619  0.02355501  0.00000000       0.040
  -0.03586572  0.02355501  0.00000000       0.040
  -0.01195524  0.02355501  0.00000000       0.040
   0.01195524  0.04711002  0.00000000       0.040
   0.03586572  0.04711002  0.00000000       0.040
   0.05977619  0.04711002  0.00000000       0.040
   0.08368667  0.04711002  0.00000000       0.040
   0.10759715  0.04711002  0.00000000       0.040
  -0.10759715  0.04711002  0.00000000       0.040
  -0.08368667  0.04711002  0.00000000       0.040
  -0.05977619  0.04711002  0.00000000       0.040
  -0.03586572  0.04711002  0.00000000       0.040
  -0.01195524  0.04711002  0.00000000       0.040
 
 k-points in reciprocal lattice and weights: K-Spacing Value to Generate K-Mesh: 0.02
   0.05000000  0.00000000  0.00000000       0.040
   0.15000000  0.00000000  0.00000000       0.040
   0.25000000  0.00000000  0.00000000       0.040
   0.35000000  0.00000000  0.00000000       0.040
   0.45000000  0.00000000  0.00000000       0.040
   0.05000000  0.20000000  0.00000000       0.040
   0.15000000  0.20000000  0.00000000       0.040
   0.25000000  0.20000000  0.00000000       0.040
   0.35000000  0.20000000  0.00000000       0.040
   0.45000000  0.20000000  0.00000000       0.040
  -0.45000000  0.20000000  0.00000000       0.040
  -0.35000000  0.20000000  0.00000000       0.040
  -0.25000000  0.20000000  0.00000000       0.040
  -0.15000000  0.20000000  0.00000000       0.040
  -0.05000000  0.20000000  0.00000000       0.040
   0.05000000  0.40000000  0.00000000       0.040
   0.15000000  0.40000000  0.00000000       0.040
   0.25000000  0.40000000  0.00000000       0.040
   0.35000000  0.40000000  0.00000000       0.040
   0.45000000  0.40000000  0.00000000       0.040
  -0.45000000  0.40000000  0.00000000       0.040
  -0.35000000  0.40000000  0.00000000       0.040
  -0.25000000  0.40000000  0.00000000       0.040
  -0.15000000  0.40000000  0.00000000       0.040
  -0.05000000  0.40000000  0.00000000       0.040
 
 position of ions in fractional coordinates (direct lattice) 
   0.49999997  0.38899424  0.60422389
   0.50000002  0.38899425  0.39577612
   0.49999997  0.88899425  0.39577612
   0.50000002  0.88899424  0.60422389
   1.00000000  0.65136464  0.50000000
   1.00000000  0.15136464  0.50000000
   0.99999974  0.16593870  0.60388564
   0.00000026  0.16593870  0.39611436
   0.99999974  0.66593870  0.39611436
   0.00000026  0.66593870  0.60388564
   0.50000000  0.40489164  0.50000000
   0.50000000  0.90489164  0.50000000
 
 position of ions in cartesian coordinates  (Angst):
   2.09113340  3.30285758 16.80745709
   2.09113361  3.30285763 11.00914783
   2.09113340  7.54823867 11.00914783
   2.09113361  7.54823862 16.80745709
   4.18226701  5.53058220 13.90830237
   4.18226701  1.28520116 13.90830237
   4.18226592  1.40894605 16.79804829
   0.00000108  1.40894606 11.01855657
   4.18226592  5.65432710 11.01855657
   0.00000108  5.65432709 16.79804829
   2.09113350  3.43783856 13.90830241
   2.09113350  7.68321960 13.90830241
 


--------------------------------------------------------------------------------------------------------


 k-point  1 :   0.0500 0.0000 0.0000  plane waves:   32967
 k-point  2 :   0.1500 0.0000 0.0000  plane waves:   32949
 k-point  3 :   0.2500 0.0000 0.0000  plane waves:   32943
 k-point  4 :   0.3500 0.0000 0.0000  plane waves:   32919
 k-point  5 :   0.4500 0.0000 0.0000  plane waves:   32956
 k-point  6 :   0.0500 0.2000 0.0000  plane waves:   32999
 k-point  7 :   0.1500 0.2000 0.0000  plane waves:   32983
 k-point  8 :   0.2500 0.2000 0.0000  plane waves:   32970
 k-point  9 :   0.3500 0.2000 0.0000  plane waves:   32937
 k-point 10 :   0.4500 0.2000 0.0000  plane waves:   32938
 k-point 11 :  -0.4500 0.2000 0.0000  plane waves:   32938
 k-point 12 :  -0.3500 0.2000 0.0000  plane waves:   32937
 k-point 13 :  -0.2500 0.2000 0.0000  plane waves:   32970
 k-point 14 :  -0.1500 0.2000 0.0000  plane waves:   32983
 k-point 15 :  -0.0500 0.2000 0.0000  plane waves:   32999
 k-point 16 :   0.0500 0.4000 0.0000  plane waves:   33023
 k-point 17 :   0.1500 0.4000 0.0000  plane waves:   33002
 k-point 18 :   0.2500 0.4000 0.0000  plane waves:   32973
 k-point 19 :   0.3500 0.4000 0.0000  plane waves:   32930
 k-point 20 :   0.4500 0.4000 0.0000  plane waves:   32938
 k-point 21 :  -0.4500 0.4000 0.0000  plane waves:   32938
 k-point 22 :  -0.3500 0.4000 0.0000  plane waves:   32930
 k-point 23 :  -0.2500 0.4000 0.0000  plane waves:   32973
 k-point 24 :  -0.1500 0.4000 0.0000  plane waves:   33002
 k-point 25 :  -0.0500 0.4000 0.0000  plane waves:   33023

 maximum and minimum number of plane-waves per node :      1402     1345

 maximum number of plane-waves:     33023
 maximum index in each direction: 
   IXMAX=    8   IYMAX=   16   IZMAX=   55
   IXMIN=   -8   IYMIN=  -17   IZMIN=  -55


 parallel 3D FFT for wavefunctions:
    minimum data exchange during FFTs selected (reduces bandwidth)
 parallel 3D FFT for charge:
    minimum data exchange during FFTs selected (reduces bandwidth)


 total amount of memory used by VASP MPI-rank0    47796. kBytes
=======================================================================

   base      :      30000. kBytes
   nonl-proj :       7419. kBytes
   fftplans  :       2805. kBytes
   grid      :       4780. kBytes
   one-center:          8. kBytes
   wavefun   :       2784. kBytes
 
     INWAV:  cpu time    0.0000: real time    0.0000
 Broyden mixing: mesh for mixing (old mesh)
   NGX = 17   NGY = 33   NGZ =111
  (NGX  = 72   NGY  =140   NGZ  =448)
  gives a total of  62271 points

 initial charge density was supplied:
 charge density of overlapping atoms calculated
 number of electron      60.0000000 magnetization 
 keeping initial charge density in first step


--------------------------------------------------------------------------------------------------------


 Maximum index for augmentation-charges         1857 (set IRDMAX)


--------------------------------------------------------------------------------------------------------


 First call to EWALD:  gamma=   0.178
 Maximum number of real-space cells 6x 3x 1
 Maximum number of reciprocal cells 1x 2x 7

    FEWALD:  cpu time    0.0017: real time    0.0017


--------------------------------------- Iteration      1(   1)  ---------------------------------------


    POTLOK:  cpu time    0.0556: real time    0.0813
    SETDIJ:  cpu time    0.0095: real time    0.0095
     EDDAV:  cpu time    0.6696: real time    0.6782
       DOS:  cpu time    0.0012: real time    0.0012
    --------------------------------------------
      LOOP:  cpu time    0.7359: real time    0.7702

 eigenvalue-minimisations  :  2000
 total energy-change (2. order) : 0.4820079E+03  (-0.1891928E+04)
 number of electron      60.0000000 magnetization 
 augmentation part       60.0000000 magnetization 

 DIPCOR: dipole corrections for dipol
 direction  3 min pos     1,
 dipolmoment           0.000000      0.000000      0.000000 electrons x Angstroem
 Tr[quadrupol]      -446.525888

 energy correction for charged system         0.000000 eV
 dipol+quadrupol energy correction           -0.000000 eV
 added-field ion interaction         -0.000000 eV  (added to PSCEN)


 Free energy of the ion-electron system (eV)
  ---------------------------------------------------
  alpha Z        PSCENC =        17.47731182
  Ewald energy   TEWEN  =      8437.36301691
  -Hartree energ DENC   =    -10372.83323408
  -exchange      EXHF   =         0.00000000
  -V(xc)+E(xc)   XCENC  =      -702.17691594
  PAW double counting   =      2504.01617717    -1681.20004824
  entropy T*S    EENTRO =        -0.03296074
  eigenvalues    EBANDS =        36.54111632
  atomic energy  EATOM  =      2242.85346269
  Solvation  Ediel_sol  =         0.00000000
  ---------------------------------------------------
  free energy    TOTEN  =       482.00792591 eV

  energy without entropy =      482.04088665  energy(sigma->0) =      482.02440628


--------------------------------------------------------------------------------------------------------




--------------------------------------- Iteration      1(   2)  ---------------------------------------


     EDDAV:  cpu time    0.7703: real time    0.7708
       DOS:  cpu time    0.0009: real time    0.0009
    --------------------------------------------
      LOOP:  cpu time    0.7712: real time    0.7717

 eigenvalue-minimisations  :  3048
 total energy-change (2. order) :-0.4335439E+03  (-0.4185940E+03)
 number of electron      60.0000000 magnetization 
 augmentation part       60.0000000 magnetization 

 DIPCOR: dipole corrections for dipol
 direction  3 min pos     1,
 dipolmoment           0.000000      0.000000      0.000000 electrons x Angstroem
 Tr[quadrupol]      -446.525888

 energy correction for charged system         0.000000 eV
 dipol+quadrupol energy correction           -0.000000 eV
 added-field ion interaction         -0.000000 eV  (added to PSCEN)


 Free energy of the ion-electron system (eV)
  ---------------------------------------------------
  alpha Z        PSCENC =        17.47731182
  Ewald energy   TEWEN  =      8437.36301691
  -Hartree energ DENC   =    -10372.83323408
  -exchange      EXHF   =         0.00000000
  -V(xc)+E(xc)   XCENC  =      -702.17691594
  PAW double counting   =      2504.01617717    -1681.20004824
  entropy T*S    EENTRO =        -0.00552078
  eigenvalues    EBANDS =      -397.03027218
  atomic energy  EATOM  =      2242.85346269
  Solvation  Ediel_sol  =         0.00000000
  ---------------------------------------------------
  free energy    TOTEN  =        48.46397737 eV

  energy without entropy =       48.46949815  energy(sigma->0) =       48.46673776


--------------------------------------------------------------------------------------------------------




--------------------------------------- Iteration      1(   3)  ---------------------------------------


     EDDAV:  cpu time    0.6795: real time    0.6799
       DOS:  cpu time    0.0006: real time    0.0006
    --------------------------------------------
      LOOP:  cpu time    0.6802: real time    0.6805

 eigenvalue-minimisations  :  2552
 total energy-change (2. order) :-0.9753117E+02  (-0.9586009E+02)
 number of electron      60.0000000 magnetization 
 augmentation part       60.0000000 magnetization 

 DIPCOR: dipole corrections for dipol
 direction  3 min pos     1,
 dipolmoment           0.000000      0.000000      0.000000 electrons x Angstroem
 Tr[quadrupol]      -446.525888

 energy correction for charged system         0.000000 eV
 dipol+quadrupol energy correction           -0.000000 eV
 added-field ion interaction         -0.000000 eV  (added to PSCEN)


 Free energy of the ion-electron system (eV)
  ---------------------------------------------------
  alpha Z        PSCENC =        17.47731182
  Ewald energy   TEWEN  =      8437.36301691
  -Hartree energ DENC   =    -10372.83323408
  -exchange      EXHF   =         0.00000000
  -V(xc)+E(xc)   XCENC  =      -702.17691594
  PAW double counting   =      2504.01617717    -1681.20004824
  entropy T*S    EENTRO =        -0.00000000
  eigenvalues    EBANDS =      -494.56696546
  atomic energy  EATOM  =      2242.85346269
  Solvation  Ediel_sol  =         0.00000000
  ---------------------------------------------------
  free energy    TOTEN  =       -49.06719513 eV

  energy without entropy =      -49.06719513  energy(sigma->0) =      -49.06719513


--------------------------------------------------------------------------------------------------------




--------------------------------------- Iteration      1(   4)  ---------------------------------------


     EDDAV:  cpu time    0.6963: real time    0.6974
       DOS:  cpu time    0.0006: real time    0.0006
    --------------------------------------------
      LOOP:  cpu time    0.6969: real time    0.6980

 eigenvalue-minimisations  :  2688
 total energy-change (2. order) :-0.6250303E+01  (-0.6219678E+01)
 number of electron      60.0000000 magnetization 
 augmentation part       60.0000000 magnetization 

 DIPCOR: dipole corrections for dipol
 direction  3 min pos     1,
 dipolmoment           0.000000      0.000000      0.000000 electrons x Angstroem
 Tr[quadrupol]      -446.525888

 energy correction for charged system         0.000000 eV
 dipol+quadrupol energy correction           -0.000000 eV
 added-field ion interaction         -0.000000 eV  (added to PSCEN)


 Free energy of the ion-electron system (eV)
  ---------------------------------------------------
  alpha Z        PSCENC =        17.47731182
  Ewald energy   TEWEN  =      8437.36301691
  -Hartree energ DENC   =    -10372.83323408
  -exchange      EXHF   =         0.00000000
  -V(xc)+E(xc)   XCENC  =      -702.17691594
  PAW double counting   =      2504.01617717    -1681.20004824
  entropy T*S    EENTRO =        -0.00000000
  eigenvalues    EBANDS =      -500.81726814
  atomic energy  EATOM  =      2242.85346269
  Solvation  Ediel_sol  =         0.00000000
  ---------------------------------------------------
  free energy    TOTEN  =       -55.31749781 eV

  energy without entropy =      -55.31749781  energy(sigma->0) =      -55.31749781


--------------------------------------------------------------------------------------------------------




--------------------------------------- Iteration      1(   5)  ---------------------------------------


     EDDAV:  cpu time    0.7121: real time    0.7125
       DOS:  cpu time    0.0007: real time    0.0007
    CHARGE:  cpu time    0.0341: real time    0.0342
    MIXING:  cpu time    0.0007: real time    0.0007
    --------------------------------------------
      LOOP:  cpu time    0.7477: real time    0.7481

 eigenvalue-minimisations  :  2784
 total energy-change (2. order) :-0.1937007E+00  (-0.1935223E+00)
 number of electron      60.0000003 magnetization 
 augmentation part      -12.7621481 magnetization 

 DIPCOR: dipole corrections for dipol
 direction  3 min pos     1,
 dipolmoment           0.000000      0.000000      0.000000 electrons x Angstroem
 Tr[quadrupol]      -446.525888

 energy correction for charged system         0.000000 eV
 dipol+quadrupol energy correction           -0.000000 eV
 added-field ion interaction         -0.000000 eV  (added to PSCEN)


 Broyden mixing:
  rms(total) = 0.22769E+01    rms(broyden)= 0.22769E+01
  rms(prec ) = 0.23065E+01
  weight for this iteration     100.00

 Free energy of the ion-electron system (eV)
  ---------------------------------------------------
  alpha Z        PSCENC =        17.47731182
  Ewald energy   TEWEN  =      8437.36301691
  -Hartree energ DENC   =    -10372.83323408
  -exchange      EXHF   =         0.00000000
  -V(xc)+E(xc)   XCENC  =      -702.17691594
  PAW double counting   =      2504.01617717    -1681.20004824
  entropy T*S    EENTRO =        -0.00000000
  eigenvalues    EBANDS =      -501.01096885
  atomic energy  EATOM  =      2242.85346269
  Solvation  Ediel_sol  =         0.00000000
  ---------------------------------------------------
  free energy    TOTEN  =       -55.51119852 eV

  energy without entropy =      -55.51119852  energy(sigma->0) =      -55.51119852


--------------------------------------------------------------------------------------------------------




--------------------------------------- Iteration      1(   6)  ---------------------------------------


    POTLOK:  cpu time    0.0267: real time    0.0267
    SETDIJ:  cpu time    0.0039: real time    0.0039
     EDDAV:  cpu time    0.6512: real time    0.6516
       DOS:  cpu time    0.0007: real time    0.0007
    CHARGE:  cpu time    0.0318: real time    0.0318
    MIXING:  cpu time    0.0005: real time    0.0005
    --------------------------------------------
      LOOP:  cpu time    0.7148: real time    0.7152

 eigenvalue-minimisations  :  2400
 total energy-change (2. order) : 0.3678955E+01  (-0.1049731E+01)
 number of electron      60.0000003 magnetization 
 augmentation part      -12.6689295 magnetization 

 DIPCOR: dipole corrections for dipol
 direction  3 min pos     1,
 dipolmoment           0.000000      0.000000      0.000013 electrons x Angstroem
 Tr[quadrupol]      -447.495603

 energy correction for charged system         0.000000 eV
 dipol+quadrupol energy correction           -0.000000 eV
 added-field ion interaction         -0.000000 eV  (added to PSCEN)


 Broyden mixing:
  rms(total) = 0.13172E+01    rms(broyden)= 0.13172E+01
  rms(prec ) = 0.13214E+01
  weight for this iteration     100.00

 eigenvalues of (default mixing * dielectric matrix)
  average eigenvalue GAMMA=   1.9125
  1.9125

 Free energy of the ion-electron system (eV)
  ---------------------------------------------------
  alpha Z        PSCENC =        17.47731182
  Ewald energy   TEWEN  =      8437.36301691
  -Hartree energ DENC   =    -10415.98525425
  -exchange      EXHF   =         0.00000000
  -V(xc)+E(xc)   XCENC  =      -699.49895738
  PAW double counting   =      3131.83618018    -2309.81360385
  entropy T*S    EENTRO =        -0.00000000
  eigenvalues    EBANDS =      -456.06439982
  atomic energy  EATOM  =      2242.85346269
  Solvation  Ediel_sol  =         0.00000000
  ---------------------------------------------------
  free energy    TOTEN  =       -51.83224371 eV

  energy without entropy =      -51.83224371  energy(sigma->0) =      -51.83224371


--------------------------------------------------------------------------------------------------------




--------------------------------------- Iteration      1(   7)  ---------------------------------------


    POTLOK:  cpu time    0.0267: real time    0.0267
    SETDIJ:  cpu time    0.0039: real time    0.0039
     EDDAV:  cpu time    0.7018: real time    0.7021
       DOS:  cpu time    0.0006: real time    0.0006
    CHARGE:  cpu time    0.0326: real time    0.0326
    MIXING:  cpu time    0.0005: real time    0.0005
    --------------------------------------------
      LOOP:  cpu time    0.7661: real time    0.7664

 eigenvalue-minimisations  :  2704
 total energy-change (2. order) :-0.2695366E-01  (-0.3184909E+00)
 number of electron      60.0000003 magnetization 
 augmentation part      -12.8404654 magnetization 

 DIPCOR: dipole corrections for dipol
 direction  3 min pos     1,
 dipolmoment           0.000000      0.000000     -0.000025 electrons x Angstroem
 Tr[quadrupol]      -448.630458

 energy correction for charged system         0.000000 eV
 dipol+quadrupol energy correction           -0.000000 eV
 added-field ion interaction          0.000000 eV  (added to PSCEN)


 Broyden mixing:
  rms(total) = 0.76256E+00    rms(broyden)= 0.76256E+00
  rms(prec ) = 0.76486E+00
  weight for this iteration     100.00

 eigenvalues of (default mixing * dielectric matrix)
  average eigenvalue GAMMA=   1.5603
  0.6675  2.4532

 Free energy of the ion-electron system (eV)
  ---------------------------------------------------
  alpha Z        PSCENC =        17.47731182
  Ewald energy   TEWEN  =      8437.36301691
  -Hartree energ DENC   =    -10439.09978649
  -exchange      EXHF   =         0.00000000
  -V(xc)+E(xc)   XCENC  =      -698.25095727
  PAW double counting   =      4145.73275483    -3323.90465315
  entropy T*S    EENTRO =        -0.00000000
  eigenvalues    EBANDS =      -434.03034670
  atomic energy  EATOM  =      2242.85346269
  Solvation  Ediel_sol  =         0.00000000
  ---------------------------------------------------
  free energy    TOTEN  =       -51.85919737 eV

  energy without entropy =      -51.85919737  energy(sigma->0) =      -51.85919737


--------------------------------------------------------------------------------------------------------




--------------------------------------- Iteration      1(   8)  ---------------------------------------


    POTLOK:  cpu time    0.0267: real time    0.0267
    SETDIJ:  cpu time    0.0039: real time    0.0039
     EDDAV:  cpu time    0.7002: real time    0.7011
       DOS:  cpu time    0.0006: real time    0.0006
    CHARGE:  cpu time    0.0326: real time    0.0327
    MIXING:  cpu time    0.0005: real time    0.0005
    --------------------------------------------
      LOOP:  cpu time    0.7646: real time    0.7654

 eigenvalue-minimisations  :  2704
 total energy-change (2. order) : 0.4642023E-01  (-0.1667713E-01)
 number of electron      60.0000003 magnetization 
 augmentation part      -12.8647651 magnetization 

 DIPCOR: dipole corrections for dipol
 direction  3 min pos     1,
 dipolmoment           0.000000      0.000000     -0.000012 electrons x Angstroem
 Tr[quadrupol]      -449.129101

 energy correction for charged system         0.000000 eV
 dipol+quadrupol energy correction           -0.000000 eV
 added-field ion interaction          0.000000 eV  (added to PSCEN)


 Broyden mixing:
  rms(total) = 0.38431E+00    rms(broyden)= 0.38431E+00
  rms(prec ) = 0.38575E+00
  weight for this iteration     100.00

 eigenvalues of (default mixing * dielectric matrix)
  average eigenvalue GAMMA=   1.5709
  2.3904  1.1611  1.1611

 Free energy of the ion-electron system (eV)
  ---------------------------------------------------
  alpha Z        PSCENC =        17.47731182
  Ewald energy   TEWEN  =      8437.36301691
  -Hartree energ DENC   =    -10442.44686139
  -exchange      EXHF   =         0.00000000
  -V(xc)+E(xc)   XCENC  =      -698.28696207
  PAW double counting   =      4500.16718431    -3678.18285153
  entropy T*S    EENTRO =        -0.00000000
  eigenvalues    EBANDS =      -430.75707788
  atomic energy  EATOM  =      2242.85346269
  Solvation  Ediel_sol  =         0.00000000
  ---------------------------------------------------
  free energy    TOTEN  =       -51.81277714 eV

  energy without entropy =      -51.81277714  energy(sigma->0) =      -51.81277714


--------------------------------------------------------------------------------------------------------




--------------------------------------- Iteration      1(   9)  ---------------------------------------


    POTLOK:  cpu time    0.0273: real time    0.0273
    SETDIJ:  cpu time    0.0037: real time    0.0037
     EDDAV:  cpu time    0.6768: real time    0.6769
       DOS:  cpu time    0.0006: real time    0.0006
    CHARGE:  cpu time    0.0321: real time    0.0321
    MIXING:  cpu time    0.0005: real time    0.0005
    --------------------------------------------
      LOOP:  cpu time    0.7410: real time    0.7411

 eigenvalue-minimisations  :  2552
 total energy-change (2. order) : 0.2006222E-01  (-0.7137260E-02)
 number of electron      60.0000003 magnetization 
 augmentation part      -12.8606962 magnetization 

 DIPCOR: dipole corrections for dipol
 direction  3 min pos     1,
 dipolmoment           0.000000      0.000000     -0.000000 electrons x Angstroem
 Tr[quadrupol]      -449.540528

 energy correction for charged system         0.000000 eV
 dipol+quadrupol energy correction           -0.000000 eV
 added-field ion interaction          0.000000 eV  (added to PSCEN)


 Broyden mixing:
  rms(total) = 0.14660E+00    rms(broyden)= 0.14660E+00
  rms(prec ) = 0.14745E+00
  weight for this iteration     100.00

 eigenvalues of (default mixing * dielectric matrix)
  average eigenvalue GAMMA=   1.5060
  2.2917  1.5793  1.3809  0.7723

 Free energy of the ion-electron system (eV)
  ---------------------------------------------------
  alpha Z        PSCENC =        17.47731182
  Ewald energy   TEWEN  =      8437.36301691
  -Hartree energ DENC   =    -10445.15624674
  -exchange      EXHF   =         0.00000000
  -V(xc)+E(xc)   XCENC  =      -698.41243083
  PAW double counting   =      4526.07330019    -3703.92955016
  entropy T*S    EENTRO =        -0.00000000
  eigenvalues    EBANDS =      -428.06157878
  atomic energy  EATOM  =      2242.85346269
  Solvation  Ediel_sol  =         0.00000000
  ---------------------------------------------------
  free energy    TOTEN  =       -51.79271492 eV

  energy without entropy =      -51.79271492  energy(sigma->0) =      -51.79271492


--------------------------------------------------------------------------------------------------------




--------------------------------------- Iteration      1(  10)  ---------------------------------------


    POTLOK:  cpu time    0.0272: real time    0.0272
    SETDIJ:  cpu time    0.0038: real time    0.0038
     EDDAV:  cpu time    0.6827: real time    0.6830
       DOS:  cpu time    0.0006: real time    0.0006
    CHARGE:  cpu time    0.0320: real time    0.0320
    MIXING:  cpu time    0.0006: real time    0.0006
    --------------------------------------------
      LOOP:  cpu time    0.7468: real time    0.7472

 eigenvalue-minimisations  :  2592
 total energy-change (2. order) : 0.2376691E-02  (-0.7151971E-03)
 number of electron      60.0000003 magnetization 
 augmentation part      -12.8487673 magnetization 

 DIPCOR: dipole corrections for dipol
 direction  3 min pos     1,
 dipolmoment           0.000000      0.000000      0.000006 electrons x Angstroem
 Tr[quadrupol]      -449.836297

 energy correction for charged system         0.000000 eV
 dipol+quadrupol energy correction           -0.000000 eV
 added-field ion interaction         -0.000000 eV  (added to PSCEN)


 Broyden mixing:
  rms(total) = 0.51645E-01    rms(broyden)= 0.51645E-01
  rms(prec ) = 0.52937E-01
  weight for this iteration     100.00

 eigenvalues of (default mixing * dielectric matrix)
  average eigenvalue GAMMA=   1.4702
  2.1797  1.6248  1.6248  0.9607  0.9607

 Free energy of the ion-electron system (eV)
  ---------------------------------------------------
  alpha Z        PSCENC =        17.47731182
  Ewald energy   TEWEN  =      8437.36301691
  -Hartree energ DENC   =    -10448.33854038
  -exchange      EXHF   =         0.00000000
  -V(xc)+E(xc)   XCENC  =      -698.40963063
  PAW double counting   =      4497.40468882    -3675.21070814
  entropy T*S    EENTRO =        -0.00000000
  eigenvalues    EBANDS =      -424.92993930
  atomic energy  EATOM  =      2242.85346269
  Solvation  Ediel_sol  =         0.00000000
  ---------------------------------------------------
  free energy    TOTEN  =       -51.79033822 eV

  energy without entropy =      -51.79033822  energy(sigma->0) =      -51.79033822


--------------------------------------------------------------------------------------------------------




--------------------------------------- Iteration      1(  11)  ---------------------------------------


    POTLOK:  cpu time    0.0268: real time    0.0272
    SETDIJ:  cpu time    0.0038: real time    0.0038
     EDDAV:  cpu time    0.7099: real time    0.7102
       DOS:  cpu time    0.0006: real time    0.0006
    CHARGE:  cpu time    0.0325: real time    0.0325
    MIXING:  cpu time    0.0005: real time    0.0005
    --------------------------------------------
      LOOP:  cpu time    0.7741: real time    0.7748

 eigenvalue-minimisations  :  2760
 total energy-change (2. order) : 0.1148230E-02  (-0.1795912E-03)
 number of electron      60.0000003 magnetization 
 augmentation part      -12.8468043 magnetization 

 DIPCOR: dipole corrections for dipol
 direction  3 min pos     1,
 dipolmoment           0.000000      0.000000      0.000005 electrons x Angstroem
 Tr[quadrupol]      -450.046829

 energy correction for charged system         0.000000 eV
 dipol+quadrupol energy correction           -0.000000 eV
 added-field ion interaction         -0.000000 eV  (added to PSCEN)


 Broyden mixing:
  rms(total) = 0.31306E-01    rms(broyden)= 0.31306E-01
  rms(prec ) = 0.32516E-01
  weight for this iteration     100.00

 eigenvalues of (default mixing * dielectric matrix)
  average eigenvalue GAMMA=   1.6391
  2.3055  2.3055  2.2106  0.8313  1.0908  1.0908

 Free energy of the ion-electron system (eV)
  ---------------------------------------------------
  alpha Z        PSCENC =        17.47731182
  Ewald energy   TEWEN  =      8437.36301691
  -Hartree energ DENC   =    -10450.32149650
  -exchange      EXHF   =         0.00000000
  -V(xc)+E(xc)   XCENC  =      -698.41638269
  PAW double counting   =      4475.95787681    -3653.74991248
  entropy T*S    EENTRO =        -0.00000000
  eigenvalues    EBANDS =      -422.95306655
  atomic energy  EATOM  =      2242.85346269
  Solvation  Ediel_sol  =         0.00000000
  ---------------------------------------------------
  free energy    TOTEN  =       -51.78918999 eV

  energy without entropy =      -51.78918999  energy(sigma->0) =      -51.78918999


--------------------------------------------------------------------------------------------------------




--------------------------------------- Iteration      1(  12)  ---------------------------------------


    POTLOK:  cpu time    0.0270: real time    0.0274
    SETDIJ:  cpu time    0.0037: real time    0.0037
     EDDAV:  cpu time    0.6700: real time    0.6705
       DOS:  cpu time    0.0007: real time    0.0561
    CHARGE:  cpu time    0.0323: real time    0.0323
    MIXING:  cpu time    0.0006: real time    0.0006
    --------------------------------------------
      LOOP:  cpu time    0.7344: real time    0.7906

 eigenvalue-minimisations  :  2544
 total energy-change (2. order) : 0.1073939E-02  (-0.1299154E-03)
 number of electron      60.0000003 magnetization 
 augmentation part      -12.8428395 magnetization 

 DIPCOR: dipole corrections for dipol
 direction  3 min pos     1,
 dipolmoment           0.000000      0.000000     -0.000004 electrons x Angstroem
 Tr[quadrupol]      -450.379791

 energy correction for charged system         0.000000 eV
 dipol+quadrupol energy correction           -0.000000 eV
 added-field ion interaction          0.000000 eV  (added to PSCEN)


 Broyden mixing:
  rms(total) = 0.48583E-02    rms(broyden)= 0.48583E-02
  rms(prec ) = 0.72927E-02
  weight for this iteration     100.00

 eigenvalues of (default mixing * dielectric matrix)
  average eigenvalue GAMMA=   1.6435
  2.6719  2.6719  2.0421  1.2707  0.8527  0.9977  0.9977

 Free energy of the ion-electron system (eV)
  ---------------------------------------------------
  alpha Z        PSCENC =        17.47731182
  Ewald energy   TEWEN  =      8437.36301691
  -Hartree energ DENC   =    -10453.84357100
  -exchange      EXHF   =         0.00000000
  -V(xc)+E(xc)   XCENC  =      -698.39160437
  PAW double counting   =      4453.97393586    -3631.75625034
  entropy T*S    EENTRO =        -0.00000000
  eigenvalues    EBANDS =      -419.46441762
  atomic energy  EATOM  =      2242.85346269
  Solvation  Ediel_sol  =         0.00000000
  ---------------------------------------------------
  free energy    TOTEN  =       -51.78811606 eV

  energy without entropy =      -51.78811606  energy(sigma->0) =      -51.78811606


--------------------------------------------------------------------------------------------------------




--------------------------------------- Iteration      1(  13)  ---------------------------------------


    POTLOK:  cpu time    0.0268: real time    0.0271
    SETDIJ:  cpu time    0.0037: real time    0.0037
     EDDAV:  cpu time    0.6816: real time    0.6817
       DOS:  cpu time    0.0006: real time    0.0006
    CHARGE:  cpu time    0.0327: real time    0.0327
    MIXING:  cpu time    0.0006: real time    0.0006
    --------------------------------------------
      LOOP:  cpu time    0.7460: real time    0.7464

 eigenvalue-minimisations  :  2608
 total energy-change (2. order) : 0.8169185E-04  (-0.4750754E-04)
 number of electron      60.0000003 magnetization 
 augmentation part      -12.8413631 magnetization 

 DIPCOR: dipole corrections for dipol
 direction  3 min pos     1,
 dipolmoment           0.000000      0.000000      0.000004 electrons x Angstroem
 Tr[quadrupol]      -450.567575

 energy correction for charged system         0.000000 eV
 dipol+quadrupol energy correction           -0.000000 eV
 added-field ion interaction         -0.000000 eV  (added to PSCEN)


 Broyden mixing:
  rms(total) = 0.56712E-02    rms(broyden)= 0.56712E-02
  rms(prec ) = 0.68205E-02
  weight for this iteration     100.00

 eigenvalues of (default mixing * dielectric matrix)
  average eigenvalue GAMMA=   1.7018
  2.8608  2.8608  2.3256  1.6640  1.0725  1.0725  0.8511  0.9071

 Free energy of the ion-electron system (eV)
  ---------------------------------------------------
  alpha Z        PSCENC =        17.47731182
  Ewald energy   TEWEN  =      8437.36301691
  -Hartree energ DENC   =    -10455.66165615
  -exchange      EXHF   =         0.00000000
  -V(xc)+E(xc)   XCENC  =      -698.38760669
  PAW double counting   =      4446.28454257    -3624.06225693
  entropy T*S    EENTRO =        -0.00000000
  eigenvalues    EBANDS =      -417.65484857
  atomic energy  EATOM  =      2242.85346269
  Solvation  Ediel_sol  =         0.00000000
  ---------------------------------------------------
  free energy    TOTEN  =       -51.78803436 eV

  energy without entropy =      -51.78803436  energy(sigma->0) =      -51.78803436


--------------------------------------------------------------------------------------------------------




--------------------------------------- Iteration      1(  14)  ---------------------------------------


    POTLOK:  cpu time    0.0274: real time    0.0277
    SETDIJ:  cpu time    0.0038: real time    0.0038
     EDDAV:  cpu time    0.6106: real time    0.6110
       DOS:  cpu time    0.0006: real time    0.0006
    CHARGE:  cpu time    0.0324: real time    0.0324
    MIXING:  cpu time    0.0006: real time    0.0006
    --------------------------------------------
      LOOP:  cpu time    0.6754: real time    0.6761

 eigenvalue-minimisations  :  2192
 total energy-change (2. order) :-0.7348048E-03  (-0.3801325E-04)
 number of electron      60.0000003 magnetization 
 augmentation part      -12.8401341 magnetization 

 DIPCOR: dipole corrections for dipol
 direction  3 min pos     1,
 dipolmoment           0.000000      0.000000      0.000005 electrons x Angstroem
 Tr[quadrupol]      -450.796787

 energy correction for charged system         0.000000 eV
 dipol+quadrupol energy correction           -0.000000 eV
 added-field ion interaction         -0.000000 eV  (added to PSCEN)


 Broyden mixing:
  rms(total) = 0.22695E-02    rms(broyden)= 0.22695E-02
  rms(prec ) = 0.29110E-02
  weight for this iteration     100.00

 eigenvalues of (default mixing * dielectric matrix)
  average eigenvalue GAMMA=   1.7043
  3.0994  3.0994  2.2443  1.8567  1.2406  1.0458  1.0458  0.8933  0.8133

 Free energy of the ion-electron system (eV)
  ---------------------------------------------------
  alpha Z        PSCENC =        17.47731182
  Ewald energy   TEWEN  =      8437.36301691
  -Hartree energ DENC   =    -10458.05104278
  -exchange      EXHF   =         0.00000000
  -V(xc)+E(xc)   XCENC  =      -698.36502932
  PAW double counting   =      4446.22513664    -3624.00760219
  entropy T*S    EENTRO =        -0.00000000
  eigenvalues    EBANDS =      -415.28402292
  atomic energy  EATOM  =      2242.85346269
  Solvation  Ediel_sol  =         0.00000000
  ---------------------------------------------------
  free energy    TOTEN  =       -51.78876917 eV

  energy without entropy =      -51.78876917  energy(sigma->0) =      -51.78876917


--------------------------------------------------------------------------------------------------------




--------------------------------------- Iteration      1(  15)  ---------------------------------------


    POTLOK:  cpu time    0.0273: real time    0.0273
    SETDIJ:  cpu time    0.0039: real time    0.0039
     EDDAV:  cpu time    0.6500: real time    0.6503
       DOS:  cpu time    0.0006: real time    0.0006
    CHARGE:  cpu time    0.0319: real time    0.0319
    MIXING:  cpu time    0.0007: real time    0.0007
    --------------------------------------------
      LOOP:  cpu time    0.7144: real time    0.7147

 eigenvalue-minimisations  :  2424
 total energy-change (2. order) :-0.4392065E-03  (-0.6826560E-05)
 number of electron      60.0000003 magnetization 
 augmentation part      -12.8399782 magnetization 

 DIPCOR: dipole corrections for dipol
 direction  3 min pos     1,
 dipolmoment           0.000000      0.000000     -0.000002 electrons x Angstroem
 Tr[quadrupol]      -450.869314

 energy correction for charged system         0.000000 eV
 dipol+quadrupol energy correction           -0.000000 eV
 added-field ion interaction          0.000000 eV  (added to PSCEN)


 Broyden mixing:
  rms(total) = 0.25920E-02    rms(broyden)= 0.25920E-02
  rms(prec ) = 0.28994E-02
  weight for this iteration     100.00

 eigenvalues of (default mixing * dielectric matrix)
  average eigenvalue GAMMA=   1.8715
  4.7333  2.6355  2.6355  2.2625  1.3389  1.3389  1.1377  0.8583  0.8870  0.8870

 Free energy of the ion-electron system (eV)
  ---------------------------------------------------
  alpha Z        PSCENC =        17.47731182
  Ewald energy   TEWEN  =      8437.36301691
  -Hartree energ DENC   =    -10458.80499790
  -exchange      EXHF   =         0.00000000
  -V(xc)+E(xc)   XCENC  =      -698.35862470
  PAW double counting   =      4446.87398895    -3624.65710310
  entropy T*S    EENTRO =        -0.00000000
  eigenvalues    EBANDS =      -414.53626303
  atomic energy  EATOM  =      2242.85346269
  Solvation  Ediel_sol  =         0.00000000
  ---------------------------------------------------
  free energy    TOTEN  =       -51.78920838 eV

  energy without entropy =      -51.78920838  energy(sigma->0) =      -51.78920838


--------------------------------------------------------------------------------------------------------




--------------------------------------- Iteration      1(  16)  ---------------------------------------


    POTLOK:  cpu time    0.0277: real time    0.0278
    SETDIJ:  cpu time    0.0038: real time    0.0038
     EDDAV:  cpu time    0.6435: real time    0.6436
       DOS:  cpu time    0.0006: real time    0.0006
    CHARGE:  cpu time    0.0326: real time    0.0326
    MIXING:  cpu time    0.0009: real time    0.0009
    --------------------------------------------
      LOOP:  cpu time    0.7091: real time    0.7092

 eigenvalue-minimisations  :  2368
 total energy-change (2. order) :-0.4144456E-03  (-0.6664455E-05)
 number of electron      60.0000003 magnetization 
 augmentation part      -12.8398503 magnetization 

 DIPCOR: dipole corrections for dipol
 direction  3 min pos     1,
 dipolmoment           0.000000      0.000000      0.000001 electrons x Angstroem
 Tr[quadrupol]      -450.956711

 energy correction for charged system         0.000000 eV
 dipol+quadrupol energy correction           -0.000000 eV
 added-field ion interaction         -0.000000 eV  (added to PSCEN)


 Broyden mixing:
  rms(total) = 0.13870E-02    rms(broyden)= 0.13870E-02
  rms(prec ) = 0.15280E-02
  weight for this iteration     100.00

 eigenvalues of (default mixing * dielectric matrix)
  average eigenvalue GAMMA=   1.8961
  5.9019  2.4225  2.4225  2.3415  1.4229  1.4229  1.2132  0.9464  0.9464  0.9741
  0.8422

 Free energy of the ion-electron system (eV)
  ---------------------------------------------------
  alpha Z        PSCENC =        17.47731182
  Ewald energy   TEWEN  =      8437.36301691
  -Hartree energ DENC   =    -10459.65240000
  -exchange      EXHF   =         0.00000000
  -V(xc)+E(xc)   XCENC  =      -698.35643509
  PAW double counting   =      4447.71393658    -3625.49456303
  entropy T*S    EENTRO =        -0.00000000
  eigenvalues    EBANDS =      -413.69395269
  atomic energy  EATOM  =      2242.85346269
  Solvation  Ediel_sol  =         0.00000000
  ---------------------------------------------------
  free energy    TOTEN  =       -51.78962282 eV

  energy without entropy =      -51.78962282  energy(sigma->0) =      -51.78962282


--------------------------------------------------------------------------------------------------------




--------------------------------------- Iteration      1(  17)  ---------------------------------------


    POTLOK:  cpu time    0.0276: real time    0.0280
    SETDIJ:  cpu time    0.0037: real time    0.0037
     EDDAV:  cpu time    0.6836: real time    0.6837
       DOS:  cpu time    0.0006: real time    0.0006
    CHARGE:  cpu time    0.0322: real time    0.0322
    MIXING:  cpu time    0.0009: real time    0.0009
    --------------------------------------------
      LOOP:  cpu time    0.7487: real time    0.7491

 eigenvalue-minimisations  :  2608
 total energy-change (2. order) :-0.1386797E-03  (-0.1189680E-05)
 number of electron      60.0000003 magnetization 
 augmentation part      -12.8396713 magnetization 

 DIPCOR: dipole corrections for dipol
 direction  3 min pos     1,
 dipolmoment           0.000000      0.000000      0.000002 electrons x Angstroem
 Tr[quadrupol]      -450.982775

 energy correction for charged system         0.000000 eV
 dipol+quadrupol energy correction           -0.000000 eV
 added-field ion interaction         -0.000000 eV  (added to PSCEN)


 Broyden mixing:
  rms(total) = 0.51440E-03    rms(broyden)= 0.51440E-03
  rms(prec ) = 0.69349E-03
  weight for this iteration     100.00

 eigenvalues of (default mixing * dielectric matrix)
  average eigenvalue GAMMA=   1.8889
  6.2244  2.5724  2.3916  2.3916  1.5249  1.3573  1.3573  1.0960  1.0960  0.9274
  0.8639  0.8639

 Free energy of the ion-electron system (eV)
  ---------------------------------------------------
  alpha Z        PSCENC =        17.47731182
  Ewald energy   TEWEN  =      8437.36301691
  -Hartree energ DENC   =    -10459.88830250
  -exchange      EXHF   =         0.00000000
  -V(xc)+E(xc)   XCENC  =      -698.35681082
  PAW double counting   =      4446.68607369    -3624.46722750
  entropy T*S    EENTRO =        -0.00000000
  eigenvalues    EBANDS =      -413.45728578
  atomic energy  EATOM  =      2242.85346269
  Solvation  Ediel_sol  =         0.00000000
  ---------------------------------------------------
  free energy    TOTEN  =       -51.78976150 eV

  energy without entropy =      -51.78976150  energy(sigma->0) =      -51.78976150


--------------------------------------------------------------------------------------------------------




--------------------------------------- Iteration      1(  18)  ---------------------------------------


    POTLOK:  cpu time    0.0277: real time    0.0277
    SETDIJ:  cpu time    0.0039: real time    0.0039
     EDDAV:  cpu time    0.5549: real time    0.5551
       DOS:  cpu time    0.0006: real time    0.0006
    CHARGE:  cpu time    0.0328: real time    0.0328
    MIXING:  cpu time    0.0010: real time    0.0010
    --------------------------------------------
      LOOP:  cpu time    0.6208: real time    0.6211

 eigenvalue-minimisations  :  1840
 total energy-change (2. order) :-0.1800514E-03  (-0.2767036E-06)
 number of electron      60.0000003 magnetization 
 augmentation part      -12.8396438 magnetization 

 DIPCOR: dipole corrections for dipol
 direction  3 min pos     1,
 dipolmoment           0.000000      0.000000     -0.000002 electrons x Angstroem
 Tr[quadrupol]      -450.996919

 energy correction for charged system         0.000000 eV
 dipol+quadrupol energy correction           -0.000000 eV
 added-field ion interaction          0.000000 eV  (added to PSCEN)


 Broyden mixing:
  rms(total) = 0.29217E-03    rms(broyden)= 0.29217E-03
  rms(prec ) = 0.42015E-03
  weight for this iteration     100.00

 eigenvalues of (default mixing * dielectric matrix)
  average eigenvalue GAMMA=   1.9917
  6.7193  3.3880  2.4060  2.4060  2.2738  1.4206  1.4206  1.1306  1.0357  1.0357
  0.8957  0.8804  0.8804

 Free energy of the ion-electron system (eV)
  ---------------------------------------------------
  alpha Z        PSCENC =        17.47731182
  Ewald energy   TEWEN  =      8437.36301691
  -Hartree energ DENC   =    -10460.01635799
  -exchange      EXHF   =         0.00000000
  -V(xc)+E(xc)   XCENC  =      -698.35681399
  PAW double counting   =      4446.48062149    -3624.26191506
  entropy T*S    EENTRO =        -0.00000000
  eigenvalues    EBANDS =      -413.32926740
  atomic energy  EATOM  =      2242.85346269
  Solvation  Ediel_sol  =         0.00000000
  ---------------------------------------------------
  free energy    TOTEN  =       -51.78994155 eV

  energy without entropy =      -51.78994155  energy(sigma->0) =      -51.78994155


--------------------------------------------------------------------------------------------------------




--------------------------------------- Iteration      1(  19)  ---------------------------------------


    POTLOK:  cpu time    0.0278: real time    0.0278
    SETDIJ:  cpu time    0.0037: real time    0.0037
     EDDAV:  cpu time    0.5981: real time    0.5982
       DOS:  cpu time    0.0006: real time    0.0006
    CHARGE:  cpu time    0.0328: real time    0.0328
    MIXING:  cpu time    0.0009: real time    0.0013
    --------------------------------------------
      LOOP:  cpu time    0.6639: real time    0.6643

 eigenvalue-minimisations  :  2088
 total energy-change (2. order) :-0.1602475E-03  (-0.3690673E-06)
 number of electron      60.0000003 magnetization 
 augmentation part      -12.8397018 magnetization 

 DIPCOR: dipole corrections for dipol
 direction  3 min pos     1,
 dipolmoment           0.000000      0.000000     -0.000000 electrons x Angstroem
 Tr[quadrupol]      -451.009554

 energy correction for charged system         0.000000 eV
 dipol+quadrupol energy correction           -0.000000 eV
 added-field ion interaction          0.000000 eV  (added to PSCEN)


 Broyden mixing:
  rms(total) = 0.41432E-03    rms(broyden)= 0.41432E-03
  rms(prec ) = 0.43527E-03
  weight for this iteration     100.00

 eigenvalues of (default mixing * dielectric matrix)
  average eigenvalue GAMMA=   2.0653
  7.3068  4.0473  2.5296  2.5296  2.2768  1.4080  1.4080  1.3465  1.3465  1.0276
  0.9745  0.9745  0.8790  0.8601

 Free energy of the ion-electron system (eV)
  ---------------------------------------------------
  alpha Z        PSCENC =        17.47731182
  Ewald energy   TEWEN  =      8437.36301691
  -Hartree energ DENC   =    -10460.11336517
  -exchange      EXHF   =         0.00000000
  -V(xc)+E(xc)   XCENC  =      -698.35753756
  PAW double counting   =      4446.68637715    -3624.46772412
  entropy T*S    EENTRO =        -0.00000000
  eigenvalues    EBANDS =      -413.23164351
  atomic energy  EATOM  =      2242.85346269
  Solvation  Ediel_sol  =         0.00000000
  ---------------------------------------------------
  free energy    TOTEN  =       -51.79010180 eV

  energy without entropy =      -51.79010180  energy(sigma->0) =      -51.79010180


--------------------------------------------------------------------------------------------------------




--------------------------------------- Iteration      1(  20)  ---------------------------------------


    POTLOK:  cpu time    0.0275: real time    0.0275
    SETDIJ:  cpu time    0.0036: real time    0.0036
     EDDAV:  cpu time    0.5672: real time    0.5674
       DOS:  cpu time    0.0007: real time    0.0007
    CHARGE:  cpu time    0.0328: real time    0.0328
    MIXING:  cpu time    0.0009: real time    0.0009
    --------------------------------------------
      LOOP:  cpu time    0.6326: real time    0.6328

 eigenvalue-minimisations  :  1888
 total energy-change (2. order) :-0.5340636E-04  (-0.1545191E-06)
 number of electron      60.0000003 magnetization 
 augmentation part      -12.8397001 magnetization 

 DIPCOR: dipole corrections for dipol
 direction  3 min pos     1,
 dipolmoment           0.000000      0.000000      0.000000 electrons x Angstroem
 Tr[quadrupol]      -451.015534

 energy correction for charged system         0.000000 eV
 dipol+quadrupol energy correction           -0.000000 eV
 added-field ion interaction         -0.000000 eV  (added to PSCEN)


 Broyden mixing:
  rms(total) = 0.15674E-03    rms(broyden)= 0.15674E-03
  rms(prec ) = 0.17078E-03
  weight for this iteration     100.00

 eigenvalues of (default mixing * dielectric matrix)
  average eigenvalue GAMMA=   2.1063
  7.9589  4.6316  2.5572  2.4588  2.4588  1.6400  1.4957  1.4957  1.1884  1.1246
  0.9809  0.9809  0.9251  0.8486  0.8486

 Free energy of the ion-electron system (eV)
  ---------------------------------------------------
  alpha Z        PSCENC =        17.47731182
  Ewald energy   TEWEN  =      8437.36301691
  -Hartree energ DENC   =    -10460.15231923
  -exchange      EXHF   =         0.00000000
  -V(xc)+E(xc)   XCENC  =      -698.35765311
  PAW double counting   =      4446.64072285    -3624.42201080
  entropy T*S    EENTRO =        -0.00000000
  eigenvalues    EBANDS =      -413.19268633
  atomic energy  EATOM  =      2242.85346269
  Solvation  Ediel_sol  =         0.00000000
  ---------------------------------------------------
  free energy    TOTEN  =       -51.79015521 eV

  energy without entropy =      -51.79015521  energy(sigma->0) =      -51.79015521


--------------------------------------------------------------------------------------------------------




--------------------------------------- Iteration      1(  21)  ---------------------------------------


    POTLOK:  cpu time    0.0274: real time    0.0274
    SETDIJ:  cpu time    0.0036: real time    0.0036
     EDDAV:  cpu time    0.5462: real time    0.5465
       DOS:  cpu time    0.0006: real time    0.0006
    CHARGE:  cpu time    0.0327: real time    0.0327
    MIXING:  cpu time    0.0009: real time    0.0009
    --------------------------------------------
      LOOP:  cpu time    0.6113: real time    0.6116

 eigenvalue-minimisations  :  1760
 total energy-change (2. order) :-0.1926632E-04  (-0.5361296E-07)
 number of electron      60.0000003 magnetization 
 augmentation part      -12.8397050 magnetization 

 DIPCOR: dipole corrections for dipol
 direction  3 min pos     1,
 dipolmoment           0.000000      0.000000     -0.000000 electrons x Angstroem
 Tr[quadrupol]      -451.018749

 energy correction for charged system         0.000000 eV
 dipol+quadrupol energy correction           -0.000000 eV
 added-field ion interaction          0.000000 eV  (added to PSCEN)


 Broyden mixing:
  rms(total) = 0.62421E-04    rms(broyden)= 0.62421E-04
  rms(prec ) = 0.74785E-04
  weight for this iteration     100.00

 eigenvalues of (default mixing * dielectric matrix)
  average eigenvalue GAMMA=   2.2110
  8.1001  5.4968  2.8217  2.8217  2.2997  2.2997  1.5189  1.5189  1.4412  1.2751
  1.1282  1.0005  1.0005  0.9161  0.8682  0.8682

 Free energy of the ion-electron system (eV)
  ---------------------------------------------------
  alpha Z        PSCENC =        17.47731182
  Ewald energy   TEWEN  =      8437.36301691
  -Hartree energ DENC   =    -10460.16840030
  -exchange      EXHF   =         0.00000000
  -V(xc)+E(xc)   XCENC  =      -698.35766108
  PAW double counting   =      4446.72432696    -3624.50557657
  entropy T*S    EENTRO =        -0.00000000
  eigenvalues    EBANDS =      -413.17665489
  atomic energy  EATOM  =      2242.85346269
  Solvation  Ediel_sol  =         0.00000000
  ---------------------------------------------------
  free energy    TOTEN  =       -51.79017447 eV

  energy without entropy =      -51.79017447  energy(sigma->0) =      -51.79017447


--------------------------------------------------------------------------------------------------------




--------------------------------------- Iteration      1(  22)  ---------------------------------------


    POTLOK:  cpu time    0.0285: real time    0.0285
    SETDIJ:  cpu time    0.0039: real time    0.0039
     EDDAV:  cpu time    0.5413: real time    0.5414
       DOS:  cpu time    0.0006: real time    0.0006
    CHARGE:  cpu time    0.0328: real time    0.0328
    MIXING:  cpu time    0.0009: real time    0.0009
    --------------------------------------------
      LOOP:  cpu time    0.6081: real time    0.6081

 eigenvalue-minimisations  :  1752
 total energy-change (2. order) :-0.1829966E-04  (-0.1256865E-06)
 number of electron      60.0000003 magnetization 
 augmentation part      -12.8397017 magnetization 

 DIPCOR: dipole corrections for dipol
 direction  3 min pos     1,
 dipolmoment           0.000000      0.000000      0.000000 electrons x Angstroem
 Tr[quadrupol]      -451.022110

 energy correction for charged system         0.000000 eV
 dipol+quadrupol energy correction           -0.000000 eV
 added-field ion interaction         -0.000000 eV  (added to PSCEN)


 Broyden mixing:
  rms(total) = 0.38918E-04    rms(broyden)= 0.38918E-04
  rms(prec ) = 0.44036E-04
  weight for this iteration     100.00

 eigenvalues of (default mixing * dielectric matrix)
  average eigenvalue GAMMA=   2.2154
  8.2480  5.7670  3.3517  2.5532  2.5532  2.5908  1.7130  1.5062  1.5062  1.0333
  1.0333  1.1262  1.1262  0.9105  0.9105  0.8564  0.8756

 Free energy of the ion-electron system (eV)
  ---------------------------------------------------
  alpha Z        PSCENC =        17.47731182
  Ewald energy   TEWEN  =      8437.36301691
  -Hartree energ DENC   =    -10460.17799654
  -exchange      EXHF   =         0.00000000
  -V(xc)+E(xc)   XCENC  =      -698.35758709
  PAW double counting   =      4446.66136614    -3624.44263987
  entropy T*S    EENTRO =        -0.00000000
  eigenvalues    EBANDS =      -413.16712681
  atomic energy  EATOM  =      2242.85346269
  Solvation  Ediel_sol  =         0.00000000
  ---------------------------------------------------
  free energy    TOTEN  =       -51.79019277 eV

  energy without entropy =      -51.79019277  energy(sigma->0) =      -51.79019277


[...]
      0.000001  1.408946 11.018557    -0.000043    0.393497    0.078076  
      4.182266  5.654327 11.018557    -0.000045   -0.393526   -0.078080  
      0.000001  5.654327 16.798048     0.000080    0.394571   -0.077873  
      2.091134  3.437839 13.908302     0.000023   -0.000085   -0.226258  
      2.091134  7.683220 13.908302    -0.000027    0.000085    0.226252  
 
  21 f  =    2.182023 THz    13.710053 2PiTHz   72.784439 cm-1     9.024124 meV
             X         Y         Z           dx          dy          dz
      2.091133  3.302858 16.807457    -0.000605    0.065356    0.053787  
      2.091134  3.302858 11.009148    -0.000685   -0.065363    0.053787  
      2.091133  7.548239 11.009148    -0.000676   -0.065362    0.053783  
      2.091134  7.548239 16.807457    -0.000606    0.065360    0.053789  
      4.182267  5.530582 13.908302    -0.000128    0.000004   -0.004572  
      4.182267  1.285201 13.908302    -0.000127    0.000002   -0.004574  
      4.182266  1.408946 16.798048     0.000135    0.019110   -0.248162  
      0.000001  1.408946 11.018557     0.000159   -0.019128   -0.248333  
      4.182266  5.654327 11.018557     0.000177   -0.019136   -0.248329  
      0.000001  5.654327 16.798048     0.000119    0.019130   -0.248161  
      2.091134  3.437839 13.908302     0.000237    0.000007    0.601396  
      2.091134  7.683220 13.908302     0.000243    0.000006    0.601375  
 
  22 f  =    2.163523 THz    13.593815 2PiTHz   72.167355 cm-1     8.947615 meV
             X         Y         Z           dx          dy          dz
      2.091133  3.302858 16.807457     0.465470    0.000088    0.000108  
      2.091134  3.302858 11.009148     0.465488   -0.000154    0.000041  
      2.091133  7.548239 11.009148     0.465466   -0.000158    0.000049  
      2.091134  7.548239 16.807457     0.465455    0.000099    0.000014  
      4.182267  5.530582 13.908302     0.099107   -0.000022    0.000015  
      4.182267  1.285201 13.908302     0.099114   -0.000007    0.000024  
      4.182266  1.408946 16.798048    -0.112234    0.000031   -0.000241  
      0.000001  1.408946 11.018557    -0.112273    0.000019   -0.000401  
      4.182266  5.654327 11.018557    -0.112278    0.000050   -0.000418  
      0.000001  5.654327 16.798048    -0.112225   -0.000001   -0.000334  
      2.091134  3.437839 13.908302    -0.177893   -0.000027    0.000801  
      2.091134  7.683220 13.908302    -0.177922    0.000050    0.000836  
 
  23 f  =    2.068836 THz    12.998881 2PiTHz   69.008947 cm-1     8.556022 meV
             X         Y         Z           dx          dy          dz
      2.091133  3.302858 16.807457     0.000073    0.033470   -0.053429  
      2.091134  3.302858 11.009148     0.000037    0.033446    0.053469  
      2.091133  7.548239 11.009148     0.000038    0.033444    0.053467  
      2.091134  7.548239 16.807457     0.000081    0.033466   -0.053421  
      4.182267  5.530582 13.908302     0.000016   -0.004066   -0.000022  
      4.182267  1.285201 13.908302     0.000014   -0.004066   -0.000018  
      4.182266  1.408946 16.798048    -0.000019    0.012766   -0.494610  
      0.000001  1.408946 11.018557     0.000010    0.012783    0.494523  
      4.182266  5.654327 11.018557    -0.000018    0.012769    0.494503  
      0.000001  5.654327 16.798048    -0.000035    0.012761   -0.494589  
      2.091134  3.437839 13.908302    -0.000016   -0.050326    0.000103  
      2.091134  7.683220 13.908302    -0.000034   -0.050350    0.000096  
 
  24 f  =    1.717202 THz    10.789495 2PiTHz   57.279675 cm-1     7.101777 meV
             X         Y         Z           dx          dy          dz
      2.091133  3.302858 16.807457    -0.000106   -0.000002    0.000010  
      2.091134  3.302858 11.009148    -0.000107   -0.000013   -0.000001  
      2.091133  7.548239 11.009148     0.000079    0.000005   -0.000006  
      2.091134  7.548239 16.807457     0.000077   -0.000000   -0.000008  
      4.182267  5.530582 13.908302     0.023408    0.000005    0.000001  
      4.182267  1.285201 13.908302    -0.023399   -0.000003    0.000002  
      4.182266  1.408946 16.798048    -0.032801    0.000065    0.000143  
      0.000001  1.408946 11.018557    -0.032812    0.000009   -0.000140  
      4.182266  5.654327 11.018557     0.032857   -0.000003    0.000127  
      0.000001  5.654327 16.798048     0.032847   -0.000066   -0.000136  
      2.091134  3.437839 13.908302     0.705149   -0.000060   -0.000032  
      2.091134  7.683220 13.908302    -0.705237    0.000070    0.000036  
 
  25 f  =    1.616541 THz    10.157026 2PiTHz   53.922001 cm-1     6.685478 meV
             X         Y         Z           dx          dy          dz
      2.091133  3.302858 16.807457    -0.000048   -0.032415    0.009323  
      2.091134  3.302858 11.009148    -0.000030   -0.032404   -0.009345  
      2.091133  7.548239 11.009148    -0.000001    0.032402    0.009353  
      2.091134  7.548239 16.807457    -0.000027    0.032416   -0.009329  
      4.182267  5.530582 13.908302    -0.000016   -0.007287   -0.000002  
      4.182267  1.285201 13.908302     0.000020    0.007287    0.000001  
      4.182266  1.408946 16.798048    -0.000011   -0.041030    0.449775  
      0.000001  1.408946 11.018557    -0.000086   -0.041041   -0.449738  
      4.182266  5.654327 11.018557     0.000036    0.041045    0.449766  
      0.000001  5.654327 16.798048     0.000055    0.041030   -0.449799  
      2.091134  3.437839 13.908302    -0.000174   -0.299530   -0.000042  
      2.091134  7.683220 13.908302     0.000230    0.299534    0.000041  
 
  26 f  =    1.420544 THz     8.925542 2PiTHz   47.384252 cm-1     5.874901 meV
             X         Y         Z           dx          dy          dz
      2.091133  3.302858 16.807457    -0.000040    0.037133   -0.102333  
      2.091134  3.302858 11.009148     0.000014   -0.037121   -0.102353  
      2.091133  7.548239 11.009148    -0.000007    0.037104    0.102357  
      2.091134  7.548239 16.807457    -0.000025   -0.037132    0.102329  
      4.182267  5.530582 13.908302     0.000002    0.000012   -0.044945  
      4.182267  1.285201 13.908302     0.000006    0.000012    0.044946  
      4.182266  1.408946 16.798048    -0.000102    0.239960    0.107979  
      0.000001  1.408946 11.018557     0.000073   -0.239989    0.108047  
      4.182266  5.654327 11.018557    -0.000119    0.239930   -0.108044  
      0.000001  5.654327 16.798048     0.000149   -0.240011   -0.108004  
      2.091134  3.437839 13.908302    -0.000016    0.000089   -0.579442  
      2.091134  7.683220 13.908302     0.000082    0.000040    0.579464  
 
  27 f  =    1.325176 THz     8.326324 2PiTHz   44.203099 cm-1     5.480488 meV
             X         Y         Z           dx          dy          dz
      2.091133  3.302858 16.807457     0.000001   -0.068556   -0.006920  
      2.091134  3.302858 11.009148     0.000010   -0.068555    0.006949  
      2.091133  7.548239 11.009148    -0.000002   -0.068561    0.006925  
      2.091134  7.548239 16.807457     0.000007   -0.068549   -0.006945  
      4.182267  5.530582 13.908302    -0.000028    0.117674    0.000006  
      4.182267  1.285201 13.908302    -0.000024    0.117678   -0.000011  
      4.182266  1.408946 16.798048     0.000029   -0.278290   -0.040302  
      0.000001  1.408946 11.018557     0.000111   -0.278285    0.040260  
      4.182266  5.654327 11.018557     0.000003   -0.278333    0.040302  
      0.000001  5.654327 16.798048     0.000079   -0.278245   -0.040256  
      2.091134  3.437839 13.908302    -0.000122    0.564380    0.000058  
      2.091134  7.683220 13.908302    -0.000118    0.564376   -0.000064  
 
  28 f  =    1.287570 THz     8.090038 2PiTHz   42.948698 cm-1     5.324962 meV
             X         Y         Z           dx          dy          dz
      2.091133  3.302858 16.807457    -0.078683    0.000000    0.000030  
      2.091134  3.302858 11.009148     0.078646    0.000009    0.000022  
      2.091133  7.548239 11.009148    -0.078654    0.000002   -0.000024  
      2.091134  7.548239 16.807457     0.078663    0.000015   -0.000028  
      4.182267  5.530582 13.908302    -0.000018   -0.000011    0.000029  
      4.182267  1.285201 13.908302    -0.000026   -0.000009   -0.000026  
      4.182266  1.408946 16.798048    -0.493834   -0.000044   -0.000068  
      0.000001  1.408946 11.018557     0.493732    0.000072   -0.000107  
      4.182266  5.654327 11.018557    -0.493617   -0.000022    0.000085  
      0.000001  5.654327 16.798048     0.493911    0.000048    0.000073  
      2.091134  3.437839 13.908302    -0.000090   -0.000061    0.000122  
      2.091134  7.683220 13.908302    -0.000086   -0.000044   -0.000097  
 
  29 f  =    1.242637 THz     7.807720 2PiTHz   41.449916 cm-1     5.139136 meV
             X         Y         Z           dx          dy          dz
      2.091133  3.302858 16.807457     0.014831   -0.000013   -0.000004  
      2.091134  3.302858 11.009148     0.014848   -0.000013   -0.000008  
      2.091133  7.548239 11.009148     0.014828   -0.000018   -0.000001  
      2.091134  7.548239 16.807457     0.014863   -0.000011   -0.000013  
      4.182267  5.530582 13.908302     0.144843    0.000017    0.000011  
      4.182267  1.285201 13.908302     0.144847    0.000023   -0.000000  
      4.182266  1.408946 16.798048    -0.304100   -0.000062   -0.000042  
      0.000001  1.408946 11.018557    -0.303947   -0.000068    0.000005  
      4.182266  5.654327 11.018557    -0.304061   -0.000091    0.000006  
      0.000001  5.654327 16.798048    -0.303897   -0.000048    0.000020  
      2.091134  3.437839 13.908302     0.542034    0.000111    0.000010  
      2.091134  7.683220 13.908302     0.541932    0.000101   -0.000023  
 
  30 f  =    1.158743 THz     7.280596 2PiTHz   38.651501 cm-1     4.792177 meV
             X         Y         Z           dx          dy          dz
      2.091133  3.302858 16.807457     0.082670    0.000006    0.000128  
      2.091134  3.302858 11.009148     0.082712   -0.000003    0.000114  
      2.091133  7.548239 11.009148    -0.082707   -0.000007   -0.000122  
      2.091134  7.548239 16.807457    -0.082670    0.000011   -0.000118  
      4.182267  5.530582 13.908302    -0.014682   -0.000012   -0.000246  
      4.182267  1.285201 13.908302     0.014701    0.000006    0.000245  
      4.182266  1.408946 16.798048     0.491790    0.000044    0.000852  
      0.000001  1.408946 11.018557     0.492028   -0.000011    0.000729  
      4.182266  5.654327 11.018557    -0.491999   -0.000043   -0.000751  
      0.000001  5.654327 16.798048    -0.491847    0.000041   -0.000827  
      2.091134  3.437839 13.908302     0.046337   -0.000059    0.000234  
      2.091134  7.683220 13.908302    -0.046284    0.000029   -0.000237  
 
  31 f  =    1.144837 THz     7.193224 2PiTHz   38.187658 cm-1     4.734668 meV
             X         Y         Z           dx          dy          dz
      2.091133  3.302858 16.807457    -0.000177   -0.002459    0.080351  
      2.091134  3.302858 11.009148    -0.000142    0.002445    0.080377  
      2.091133  7.548239 11.009148     0.000114   -0.002454   -0.080385  
      2.091134  7.548239 16.807457     0.000129    0.002457   -0.080357  
      4.182267  5.530582 13.908302     0.000027    0.000006   -0.146950  
      4.182267  1.285201 13.908302    -0.000016   -0.000003    0.146961  
      4.182266  1.408946 16.798048    -0.000926   -0.004615    0.469929  
      0.000001  1.408946 11.018557    -0.000688    0.004594    0.469950  
      4.182266  5.654327 11.018557     0.000834   -0.004614   -0.469950  
      0.000001  5.654327 16.798048     0.000834    0.004611   -0.469933  
      2.091134  3.437839 13.908302    -0.000037    0.000013    0.154084  
      2.091134  7.683220 13.908302     0.000113    0.000009   -0.154088  
 
  32 f  =    0.953113 THz     5.988586 2PiTHz   31.792430 cm-1     3.941760 meV
             X         Y         Z           dx          dy          dz
      2.091133  3.302858 16.807457    -0.000014    0.146723   -0.010228  
      2.091134  3.302858 11.009148     0.000034   -0.146716   -0.010224  
      2.091133  7.548239 11.009148     0.000046   -0.146712   -0.010228  
      2.091134  7.548239 16.807457     0.000012    0.146723   -0.010224  
      4.182267  5.530582 13.908302    -0.000002   -0.000014    0.008772  
      4.182267  1.285201 13.908302    -0.000004   -0.000015    0.008768  
      4.182266  1.408946 16.798048    -0.000098    0.475764   -0.002770  
      0.000001  1.408946 11.018557     0.000025   -0.475798   -0.002756  
      4.182266  5.654327 11.018557     0.000072   -0.475796   -0.002746  
      0.000001  5.654327 16.798048    -0.000009    0.475767   -0.002760  
      2.091134  3.437839 13.908302    -0.000028   -0.000050   -0.062533  
      2.091134  7.683220 13.908302    -0.000025   -0.000048   -0.062538  
 
  33 f  =    0.898360 THz     5.644564 2PiTHz   29.966070 cm-1     3.715320 meV
             X         Y         Z           dx          dy          dz
      2.091133  3.302858 16.807457     0.108969    0.000022    0.000018  
      2.091134  3.302858 11.009148    -0.108987   -0.000011    0.000016  
      2.091133  7.548239 11.009148    -0.108996   -0.000016   -0.000029  
      2.091134  7.548239 16.807457     0.108959    0.000026   -0.000032  
      4.182267  5.530582 13.908302     0.000002   -0.000003   -0.000011  
      4.182267  1.285201 13.908302     0.000002   -0.000003    0.000017  
      4.182266  1.408946 16.798048     0.488012    0.000040    0.000013  
      0.000001  1.408946 11.018557    -0.487927   -0.000052    0.000066  
      4.182266  5.654327 11.018557    -0.487988   -0.000061   -0.000074  
      0.000001  5.654327 16.798048     0.487991    0.000051   -0.000048  
      2.091134  3.437839 13.908302     0.000019    0.000007    0.000044  
      2.091134  7.683220 13.908302     0.000016   -0.000010   -0.000035  
 
  34 f/i=    0.001619 THz     0.010173 2PiTHz    0.054007 cm-1     0.006696 meV
             X         Y         Z           dx          dy          dz
      2.091133  3.302858 16.807457    -0.000636    0.149629   -0.000051  
      2.091134  3.302858 11.009148    -0.000639    0.149605    0.000046  
      2.091133  7.548239 11.009148    -0.000648    0.149600    0.000045  
      2.091134  7.548239 16.807457    -0.000629    0.149630   -0.000049  
      4.182267  5.530582 13.908302    -0.000622    0.149283    0.000001  
      4.182267  1.285201 13.908302    -0.000619    0.149288    0.000001  
      4.182266  1.408946 16.798048    -0.001619    0.379921   -0.000014  
      0.000001  1.408946 11.018557    -0.001607    0.379871    0.000007  
      4.182266  5.654327 11.018557    -0.001624    0.379861    0.000005  
      0.000001  5.654327 16.798048    -0.001601    0.379925   -0.000013  
      2.091134  3.437839 13.908302    -0.001589    0.379863    0.000001  
      2.091134  7.683220 13.908302    -0.001583    0.379860   -0.000009  
 
  35 f/i=    0.005520 THz     0.034682 2PiTHz    0.184122 cm-1     0.022828 meV
             X         Y         Z           dx          dy          dz
      2.091133  3.302858 16.807457     0.148463    0.000637    0.000006  
      2.091134  3.302858 11.009148     0.148487    0.000626   -0.000001  
      2.091133  7.548239 11.009148     0.148489    0.000627   -0.000003  
      2.091134  7.548239 16.807457     0.148465    0.000639   -0.000015  
      4.182267  5.530582 13.908302     0.148668    0.000625    0.000008  
      4.182267  1.285201 13.908302     0.148673    0.000631   -0.000004  
      4.182266  1.408946 16.798048     0.380730    0.001605   -0.000036  
      0.000001  1.408946 11.018557     0.380769    0.001596   -0.000024  
      4.182266  5.654327 11.018557     0.380778    0.001595    0.000014  
      0.000001  5.654327 16.798048     0.380747    0.001607    0.000014  
      2.091134  3.437839 13.908302     0.379276    0.001608    0.000007  
      2.091134  7.683220 13.908302     0.379269    0.001614   -0.000001  
 
  36 f/i=    2.199674 THz    13.820958 2PiTHz   73.373217 cm-1     9.097123 meV
             X         Y         Z           dx          dy          dz
      2.091133  3.302858 16.807457     0.000020    0.003534    0.029560  
      2.091134  3.302858 11.009148    -0.000006   -0.003529    0.029562  
      2.091133  7.548239 11.009148    -0.000003   -0.003528    0.029562  
      2.091134  7.548239 16.807457     0.000022    0.003533    0.029561  
      4.182267  5.530582 13.908302     0.000014    0.000007    0.128610  
      4.182267  1.285201 13.908302     0.000009    0.000006    0.128615  
      4.182266  1.408946 16.798048     0.000002    0.023474    0.425344  
      0.000001  1.408946 11.018557    -0.000005   -0.023472    0.425353  
      4.182266  5.654327 11.018557    -0.000001   -0.023470    0.425351  
      0.000001  5.654327 16.798048     0.000004    0.023475    0.425345  
      2.091134  3.437839 13.908302     0.000004   -0.000001    0.344589  
      2.091134  7.683220 13.908302     0.000003    0.000000    0.344590  
 


--------------------------------------------------------------------------------------------------------




 MACROSCOPIC STATIC DIELECTRIC TENSOR IONIC CONTRIBUTION
 ------------------------------------------------------
          45.056577    -0.006316    -0.000124
          -0.006316    15.872605    -0.000028
          -0.000124    -0.000028     0.008882
 ------------------------------------------------------


 ELASTIC MODULI CONTR FROM IONIC RELAXATION (kBar)
 Direction    XX          YY          ZZ          XY          YZ          ZX
 --------------------------------------------------------------------------------
 XX         -53.1519    -84.6363    -45.8525      0.0102      0.0003     -0.0013
 YY         -84.6363   -140.6254    -45.8182     -0.0094     -0.0040     -0.0046
 ZZ         -45.8525    -45.8182   -319.1612     -0.0080      0.0083      0.0056
 XY           0.0102     -0.0094     -0.0080   -107.5890     -0.0063      0.0049
 YZ           0.0003     -0.0040      0.0083     -0.0063    -54.0942     -0.0002
 ZX          -0.0013     -0.0046      0.0056      0.0049     -0.0002    -53.9349
 --------------------------------------------------------------------------------


 PIEZOELECTRIC TENSOR IONIC CONTR  for field in x, y, z        (C/m^2)
          XX          YY          ZZ          XY          YZ          ZX
  --------------------------------------------------------------------------------
  x    -0.00047    -0.00028     0.00023     2.01361     0.00012    -0.00009
  y     0.67493     1.20990    -0.03877    -0.00005     0.00005     0.00003
  z    -0.00001    -0.00001    -0.00003    -0.00001    -0.00440    -0.00010


--------------------------------------------------------------------------------------------------------


 writing wavefunctions
     LOOP+:  cpu time  458.4263: real time  464.0048
    4ORBIT:  cpu time    0.0000: real time    0.0000

 total amount of memory used by VASP MPI-rank0    47796. kBytes
=======================================================================

   base      :      30000. kBytes
   nonl-proj :       7419. kBytes
   fftplans  :       2805. kBytes
   grid      :       4780. kBytes
   one-center:          8. kBytes
   wavefun   :       2784. kBytes
 
  
  
 General timing and accounting informations for this job:
 ========================================================
  
                  Total CPU time used (sec):      467.129
                            User time (sec):      461.954
                          System time (sec):        5.175
                         Elapsed time (sec):      472.249
  
                   Maximum memory used (kb):      196572.
                   Average memory used (kb):           0.
  
                          Minor page faults:        41696
                          Major page faults:         1227
                 Voluntary context switches:         3141
