    #         X           Y           Z       CHARGE      MIN DIST   ATOMIC VOL
 --------------------------------------------------------------------------------
    1   -0.000001    1.837675    9.999760    4.938166     1.084911    13.583548
    2    1.591474    0.918836   11.563340    6.532376     1.109437    80.386026
    3    1.591474    0.918836    8.436160    6.529458     1.109747    81.506884
 --------------------------------------------------------------------------------
    VACUUM CHARGE:               0.0000
    VACUUM VOLUME:               0.0000
    NUMBER OF ELECTRONS:        18.0000
