 running on  192 total cores
 distrk:  each k-point on  192 cores,    1 groups
 distr:  one band on   24 cores,    8 groups
 using from now: INCAR     
 vasp.5.4.4.18Apr17-6-g9f103f2a35 (build Oct 01 2024 10:11:53) complex          
  
 POSCAR found type information on POSCAR  B  O 
 POSCAR found :  2 types and      10 ions
 scaLAPACK will be used
 LDA part: xc-table for Pade appr. of Perdew
 found WAVECAR, reading the header
  number of k-points has changed, file:    27 present:    24
  trying to continue reading WAVECAR, but it might fail
 WARNING: stress and forces are not correct
 POSCAR, INCAR and KPOINTS ok, starting setup
 FFT: planning ...
 reading WAVECAR
 the WAVECAR file was read successfully
 charge-density read from file: unknown                                 
 entering main loop
       N       E                     dE             d eps       ncg     rms          rms(c)
DAV:   1    -0.769177714997E+02   -0.76918E+02   -0.50870E+02  1664   0.937E+01
DAV:   2    -0.801380761328E+02   -0.32203E+01   -0.32105E+01  1880   0.256E+01
DAV:   3    -0.801916241202E+02   -0.53548E-01   -0.53468E-01  1760   0.340E+00
DAV:   4    -0.801934794305E+02   -0.18553E-02   -0.18540E-02  1880   0.548E-01
DAV:   5    -0.801935306654E+02   -0.51235E-04   -0.51224E-04  1784   0.841E-02
DAV:   6    -0.801935331855E+02   -0.25201E-05   -0.25200E-05  1704   0.149E-02
DAV:   7    -0.801935332539E+02   -0.68399E-07   -0.68477E-07  1288   0.272E-03
   1 F= -.80193533E+02 E0= -.80193533E+02  d E =0.000000E+00
 writing wavefunctions
