<UPF version="2.0.1">
<PP_INFO>
Generated by new atomic code, or converted to UPF format
Author:
Generation date:
Pseudopotential type: US
Element: Ti
Functional: SLA  PZ   NOGX NOGC
Suggested minimum cutoff for wavefunctions:   0. Ry
Suggested minimum cutoff for charge density:   0. Ry
The Pseudo was generated with a Scalar-Relativistic Calculation
L component and cutoff radius for Local Potential:  0   0.0000
Valence configuration:
nl pn  l   occ       Rcut    Rcut US       E pseu
3S  0  0  2.00      1.000      1.800     0.000000
3P  0  1  6.00      1.000      1.800     0.000000
4S  0  0  2.00      1.000      1.800     0.000000
3D  0  2  1.00      1.000      1.800     0.000000
Generation configuration: not available.
</PP_INFO>
<!--
END OF HUMAN READABLE SECTION
-->
<PP_HEADER generated="Generated by new atomic code, or converted to UPF format" author="" date="" comment="" element="Ti" pseudo_type="US" relativistic="scalar" is_ultrasoft="true" is_paw="false" is_coulomb="false" has_so="false" has_wfc="false" has_gipaw="false" paw_as_gipaw="false" core_correction="false" functional="SLA  PZ   NOGX NOGC" z_valence="1.200000000000e1" total_psenergy="-1.153407964124e2" wfc_cutoff="0.000000000000e0" rho_cutoff="0.000000000000e0" l_max="2" l_max_rho="0" l_local="0" mesh_size="851" number_of_wfc="4" number_of_proj="6"/>
<PP_MESH mesh="851" rmax="2.035143776100e2" zmesh="2.200000000000e1">
<PP_R>
0.000000000000000e0 1.925945867270000e-6 3.884813091270000e-6 5.877164416629999e-6
7.903572207360000e-6 9.964618611180001e-6 1.206089572690000e-5 1.419300577420000e-5
1.636156126730000e-5 1.856718519000000e-5 2.081051117540000e-5 2.309218368780000e-5
2.541285820750000e-5 2.777320141930000e-5 3.017389140420001e-5 3.261561783390000e-5
3.509908216920000e-5 3.762499786140000e-5 4.019409055720000e-5 4.280709830710000e-5
4.546477177780000e-5 4.816787446730000e-5 5.091718292490000e-5 5.371348697350000e-5
5.655758993740000e-5 5.945030887210000e-5 6.239247479990000e-5 6.538493294800002e-5
6.842854299199999e-5 7.152417930190000e-5 7.467273119420000e-5 7.787510318699999e-5
8.113221525970001e-5 8.444500311760001e-5 8.781441846050001e-5 9.124142925639999e-5
9.472702001900000e-5 9.827219209119999e-5 1.018779639320000e-4 1.055453714110000e-4
1.092754681020000e-4 1.130693255900000e-4 1.169280337770000e-4 1.208527011950000e-4
1.248444553260000e-4 1.289044429220000e-4 1.330338303410000e-4 1.372338038740000e-4
1.415055700930000e-4 1.458503561940000e-4 1.502694103490000e-4 1.547640020690000e-4
1.593354225600000e-4 1.639849851060000e-4 1.687140254340000e-4 1.735239021060000e-4
1.784159969080000e-4 1.833917152420000e-4 1.884524865380000e-4 1.935997646550000e-4
1.988350283090000e-4 2.041597814880000e-4 2.095755538920000e-4 2.150839013670000e-4
2.206864063540000e-4 2.263846783450000e-4 2.321803543430000e-4 2.380750993330000e-4
2.440706067630000e-4 2.501685990250000e-4 2.563708279530000e-4 2.626790753300000e-4
2.690951533920000e-4 2.756209053530000e-4 2.822582059370000e-4 2.890089619120000e-4
2.958751126380000e-4 3.028586306280000e-4 3.099615221130000e-4 3.171858276140000e-4
3.245336225350000e-4 3.320070177560000e-4 3.396081602390000e-4 3.473392336440000e-4
3.552024589590000e-4 3.632000951359999e-4 3.713344397429999e-4 3.796078296180000e-4
3.880226415470000e-4 3.965812929419999e-4 4.052862425379999e-4 4.141399910980001e-4
4.231450821340000e-4 4.323041026330000e-4 4.416196838060000e-4 4.510945018369999e-4
4.607312786600000e-4 4.705327827330000e-4 4.805018298390001e-4 4.906412838930001e-4
5.009540577619999e-4 5.114431141090000e-4 5.221114662349999e-4 5.329621789520001e-4
5.439983694590000e-4 5.552232082400001e-4 5.666399199759999e-4 5.782517844639999e-4
5.900621375710000e-4 6.020743721809999e-4 6.142919391780000e-4 6.267183484310001e-4
6.393571698080001e-4 6.522120341980000e-4 6.652866345540000e-4 6.785847269560000e-4
6.921101316880001e-4 7.058667343390001e-4 7.198584869119999e-4 7.340894089690000e-4
7.485635887769999e-4 7.632851844889999e-4 7.782584253340000e-4 7.934876128350002e-4
8.089771220410000e-4 8.247314027900000e-4 8.407549809820001e-4 8.570524598800001e-4
8.736285214350000e-4 8.904879276279999e-4 9.076355218409999e-4 9.250762302460000e-4
9.428150632209999e-4 9.608571167879999e-4 9.792075740820000e-4 9.978717068320000e-4
1.016854876880000e-3 1.036162537740000e-3 1.055800236100000e-3 1.075773613520000e-3
1.096088407940000e-3 1.116750455430000e-3 1.137765691780000e-3 1.159140154270000e-3
1.180879983360000e-3 1.202991424490000e-3 1.225480829850000e-3 1.248354660200000e-3
1.271619486770000e-3 1.295281993070000e-3 1.319348976900000e-3 1.343827352220000e-3
1.368724151210000e-3 1.394046526230000e-3 1.419801751920000e-3 1.445997227240000e-3
1.472640477650000e-3 1.499739157250000e-3 1.527301050950000e-3 1.555334076760000e-3
1.583846288030000e-3 1.612845875750000e-3 1.642341170960000e-3 1.672340647070000e-3
1.702852922350000e-3 1.733886762400000e-3 1.765451082640000e-3 1.797554950880000e-3
1.830207589940000e-3 1.863418380290000e-3 1.897196862760000e-3 1.931552741240000e-3
1.966495885520000e-3 2.002036334080000e-3 2.038184297010000e-3 2.074950158920000e-3
2.112344481920000e-3 2.150378008690000e-3 2.189061665520000e-3 2.228406565480000e-3
2.268424011580001e-3 2.309125500090000e-3 2.350522723730000e-3 2.392627575140000e-3
2.435452150220000e-3 2.479008751650000e-3 2.523309892379999e-3 2.568368299299999e-3
2.614196916790000e-3 2.660808910540000e-3 2.708217671270000e-3 2.756436818610000e-3
2.805480204970000e-3 2.855361919570000e-3 2.906096292470000e-3 2.957697898670000e-3
3.010181562310000e-3 3.063562360940000e-3 3.117855629820000e-3 3.173076966350000e-3
3.229242234570000e-3 3.286367569659999e-3 3.344469382640000e-3 3.403564365010000e-3
3.463669493640000e-3 3.524802035560000e-3 3.586979552960000e-3 3.650219908250000e-3
3.714541269150000e-3 3.779962113950000e-3 3.846501236790001e-3 3.914177753070000e-3
3.983011104940000e-3 4.053021066910000e-3 4.124227751460000e-3 4.196651614909999e-3
4.270313463230000e-3 4.345234458050000e-3 4.421436122709999e-3 4.498940348470000e-3
4.577769400820000e-3 4.657945925790000e-3 4.739492956570000e-3 4.822433920030001e-3
4.906792643499999e-3 4.992593361630000e-3 5.079860723280001e-3 5.168619798689999e-3
5.258896086620001e-3 5.350715521700000e-3 5.444104481880000e-3 5.539089796000000e-3
5.635698751500000e-3 5.733959102270001e-3 5.833899076600000e-3 5.935547385310000e-3
6.038933230000000e-3 6.144086311410001e-3 6.251036838009999e-3 6.359815534590001e-3
6.470453651170000e-3 6.582982971950000e-3 6.697435824429999e-3 6.813845088679999e-3
6.932244206839999e-3 7.052667192690000e-3 7.175148641420000e-3 7.299723739579999e-3
7.426428275179999e-3 7.555298647990000e-3 7.686371879970000e-3 7.819685625920001e-3
7.955278184300001e-3 8.093188508230000e-3 8.233456216680000e-3 8.376121605850001e-3
8.521225660739999e-3 8.668810066940001e-3 8.818917222600000e-3 8.971590250580000e-3
9.126873010910000e-3 9.284810113310000e-3 9.445446930059999e-3 9.608829609000001e-3
9.775005086820000e-3 9.944021102520001e-3 1.011592621110000e-2 1.029076979760000e-2
1.046860209130000e-2 1.064947417980000e-2 1.083343802420000e-2 1.102054647380000e-2
1.121085328120000e-2 1.140441311790000e-2 1.160128158980000e-2 1.180151525360000e-2
1.200517163240000e-2 1.221230923270000e-2 1.242298756120000e-2 1.263726714180000e-2
1.285520953270000e-2 1.307687734460000e-2 1.330233425840000e-2 1.353164504350000e-2
1.376487557650000e-2 1.400209285980000e-2 1.424336504160000e-2 1.448876143470000e-2
1.473835253650000e-2 1.499221005000000e-2 1.525040690330000e-2 1.551301727150000e-2
1.578011659750000e-2 1.605178161360000e-2 1.632809036410000e-2 1.660912222700000e-2
1.689495793750000e-2 1.718567961040000e-2 1.748137076470000e-2 1.778211634650000e-2
1.808800275440000e-2 1.839911786350000e-2 1.871555105110000e-2 1.903739322260000e-2
1.936473683670000e-2 1.969767593310000e-2 2.003630615870000e-2 2.038072479540000e-2
2.073103078810000e-2 2.108732477270000e-2 2.144970910580000e-2 2.181828789340000e-2
2.219316702090000e-2 2.257445418390000e-2 2.296225891880000e-2 2.335669263450000e-2
2.375786864400000e-2 2.416590219750000e-2 2.458091051520000e-2 2.500301282090000e-2
2.543233037640000e-2 2.586898651629999e-2 2.631310668359999e-2 2.676481846530000e-2
2.722425162940000e-2 2.769153816240000e-2 2.816681230650000e-2 2.865021059870000e-2
2.914187191010000e-2 2.964193748550001e-2 3.015055098400000e-2 3.066785852040000e-2
3.119400870720000e-2 3.172915269720000e-2 3.227344422680000e-2 3.282703966040001e-2
3.339009803540000e-2 3.396278110750000e-2 3.454525339750000e-2 3.513768223840000e-2
3.574023782350000e-2 3.635309325540001e-2 3.697642459560000e-2 3.761041091510000e-2
3.825523434600000e-2 3.891108013350000e-2 3.957813668940000e-2 4.025659564620000e-2
4.094665191200000e-2 4.164850372660000e-2 4.236235271840000e-2 4.308840396250000e-2
4.382686603940000e-2 4.457795109480000e-2 4.534187490110000e-2 4.611885691860000e-2
4.690912035940000e-2 4.771289225080000e-2 4.853040350100000e-2 4.936188896500000e-2
5.020758751260001e-2 5.106774209660000e-2 5.194259982280000e-2 5.283241202080000e-2
5.373743431650000e-2 5.465792670539999e-2 5.559415362690000e-2 5.654638404109999e-2
5.751489150519999e-2 5.849995425280000e-2 5.950185527330000e-2 6.052088239350000e-2
6.155732836009999e-2 6.261149092399999e-2 6.368367292580000e-2 6.477418238250000e-2
6.588333257650001e-2 6.701144214510001e-2 6.815883517229999e-2 6.932584128209999e-2
7.051279573260000e-2 7.172003951290000e-2 7.294791944079999e-2 7.419678826240000e-2
7.546700475350000e-2 7.675893382290000e-2 7.807294661670000e-2 7.940942062530000e-2
8.076873979190001e-2 8.215129462249999e-2 8.355748229850001e-2 8.498770679030001e-2
8.644237897380000e-2 8.792191674800000e-2 8.942674515569999e-2 9.095729650479999e-2
9.251401049320000e-2 9.409733433460000e-2 9.570772288739999e-2 9.734563878510000e-2
9.901155256910000e-2 1.007059428240000e-1 1.024292963160000e-1 1.041821081310000e-1
1.059648818170000e-1 1.077781295320000e-1 1.096223721850000e-1 1.114981395930000e-1
1.134059706270000e-1 1.153464133700000e-1 1.173200252730000e-1 1.193273733180000e-1
1.213690341760000e-1 1.234455943760000e-1 1.255576504760000e-1 1.277058092270000e-1
1.298906877530000e-1 1.321129137290000e-1 1.343731255570000e-1 1.366719725510000e-1
1.390101151260000e-1 1.413882249860000e-1 1.438069853140000e-1 1.462670909750000e-1
1.487692487090000e-1 1.513141773370000e-1 1.539026079690000e-1 1.565352842090000e-1
1.592129623760000e-1 1.619364117140000e-1 1.647064146170000e-1 1.675237668540000e-1
1.703892777960000e-1 1.733037706480000e-1 1.762680826880000e-1 1.792830655060000e-1
1.823495852460000e-1 1.854685228630000e-1 1.886407743640000e-1 1.918672510780000e-1
1.951488799090000e-1 1.984866036040000e-1 2.018813810280000e-1 2.053341874340000e-1
2.088460147470000e-1 2.124178718470000e-1 2.160507848590000e-1 2.197457974480000e-1
2.235039711210000e-1 2.273263855280000e-1 2.312141387750000e-1 2.351683477380000e-1
2.391901483840000e-1 2.432806961000000e-1 2.474411660190000e-1 2.516727533660000e-1
2.559766737930000e-1 2.603541637330000e-1 2.648064807540000e-1 2.693349039210000e-1
2.739407341620000e-1 2.786252946430000e-1 2.833899311470000e-1 2.882360124630000e-1
2.931649307760000e-1 2.981781020680000e-1 3.032769665280000e-1 3.084629889590000e-1
3.137376592060000e-1 3.191024925790000e-1 3.245590302920000e-1 3.301088399020000e-1
3.357535157620000e-1 3.414946794770000e-1 3.473339803740000e-1 3.532730959700000e-1
3.593137324590000e-1 3.654576251980000e-1 3.717065392090000e-1 3.780622696840000e-1
3.845266425020000e-1 3.911015147500000e-1 3.977887752640000e-1 4.045903451640000e-1
4.115081784090000e-1 4.185442623580000e-1 4.257006183430000e-1 4.329793022460001e-1
4.403824050920000e-1 4.479120536490000e-1 4.555704110400000e-1 4.633596773620000e-1
4.712820903220000e-1 4.793399258740000e-1 4.875354988790000e-1 4.958711637670000e-1
5.043493152130000e-1 5.129723888260001e-1 5.217428618470001e-1 5.306632538650000e-1
5.397361275350000e-1 5.489640893180000e-1 5.583497902290000e-1 5.678959265980001e-1
5.776052408460000e-1 5.874805222710000e-1 5.975246078490000e-1 6.077403830530001e-1
6.181307826759999e-1 6.286987916799999e-1 6.394474460490000e-1 6.503798336640000e-1
6.614990951870000e-1 6.728084249680000e-1 6.843110719580000e-1 6.960103406450000e-1
7.079095920029999e-1 7.200122444560000e-1 7.323217748620000e-1 7.448417195110000e-1
7.575756751410000e-1 7.705272999700000e-1 7.837003147510000e-1 7.970985038340000e-1
8.107257162620000e-1 8.245858668670000e-1 8.386829374040000e-1 8.530209776880000e-1
8.676041067590001e-1 8.824365140699999e-1 8.975224606839999e-1 9.128662805010000e-1
9.284723815030000e-1 9.443452470219999e-1 9.604894370249999e-1 9.769095894239999e-1
9.936104214130001e-1 1.010596730820000e0 1.027873397470000e0 1.045445384640000e0
1.063317740390000e0 1.081495599130000e0 1.099984182990000e0 1.118788803400000e0
1.137914862540000e0 1.157367854970000e0 1.177153369160000e0 1.197277089100000e0
1.217744795950000e0 1.238562369680000e0 1.259735790780000e0 1.281271141960000e0
1.303174609920000e0 1.325452487100000e0 1.348111173490000e0 1.371157178500000e0
1.394597122810000e0 1.418437740250000e0 1.442685879780000e0 1.467348507410000e0
1.492432708230000e0 1.517945688470000e0 1.543894777490000e0 1.570287429980000e0
1.597131228030000e0 1.624433883340000e0 1.652203239440000e0 1.680447273920000e0
1.709174100760000e0 1.738391972610000e0 1.768109283210000e0 1.798334569750000e0
1.829076515390000e0 1.860343951680000e0 1.892145861160000e0 1.924491379900000e0
1.957389800140000e0 1.990850572960000e0 2.024883310990000e0 2.059497791180000e0
2.094703957600000e0 2.130511924310000e0 2.166931978230000e0 2.203974582140000e0
2.241650377670000e0 2.279970188350000e0 2.318945022710000e0 2.358586077470000e0
2.398904740730000e0 2.439912595280000e0 2.481621421860000e0 2.524043202630000e0
2.567190124540000e0 2.611074582860000e0 2.655709184740000e0 2.701106752860000e0
2.747280329040000e0 2.794243178070000e0 2.842008791460000e0 2.890590891350000e0
2.940003434440000e0 2.990260615990000e0 3.041376873920000e0 3.093366892940000e0
3.146245608770000e0 3.200028212460000e0 3.254730154690000e0 3.310367150290000e0
3.366955182670000e0 3.424510508500000e0 3.483049662290000e0 3.542589461230000e0
3.603147009930000e0 3.664739705400000e0 3.727385242050000e0 3.791101616720000e0
3.855907133890000e0 3.921820410940000e0 3.988860383460000e0 4.057046310760000e0
4.126397781320000e0 4.196934718480000e0 4.268677386140000e0 4.341646394570000e0
4.415862706370000e0 4.491347642450000e0 4.568122888160000e0 4.646210499540000e0
4.725632909660000e0 4.806412935040000e0 4.888573782220000e0 4.972139054410000e0
5.057132758300000e0 5.143579310950000e0 5.231503546770000e0 5.320930724690000e0
5.411886535410000e0 5.504397108780000e0 5.598489021290000e0 5.694189303720000e0
5.791525448930000e0 5.890525419690000e0 5.991217656790000e0 6.093631087150000e0
6.197795132180000e0 6.303739716190000e0 6.411495274990000e0 6.521092764700000e0
6.632563670530000e0 6.745940015930000e0 6.861254371720000e0 6.978539865490000e0
7.097830191090000e0 7.219159618330000e0 7.342563002790000e0 7.468075795890000e0
7.595734055020000e0 7.725574453920000e0 7.857634293240000e0 7.991951511210000e0
8.128564694570001e0 8.267513089630000e0 8.408836613589999e0 8.552575865960000e0
8.698772140239999e0 8.847467435800001e0 8.998704469920000e0 9.152526690060000e0
9.308978286380000e0 9.468104204399999e0 9.629950157900000e0 9.794562642110000e0
9.961988947000000e0 1.013227717090000e1 1.030547623430000e1 1.048163589410000e1
1.066080675730000e1 1.084304029640000e1 1.102838886350000e1 1.121690570570000e1
1.140864498020000e1 1.160366177010000e1 1.180201209970000e1 1.200375295150000e1
1.220894228150000e1 1.241763903680000e1 1.262990317190000e1 1.284579566610000e1
1.306537854120000e1 1.328871487900000e1 1.351586883990000e1 1.374690568080000e1
1.398189177400000e1 1.422089462650000e1 1.446398289920000e1 1.471122642670000e1
1.496269623720000e1 1.521846457320000e1 1.547860491190000e1 1.574319198660000e1
1.601230180820000e1 1.628601168660000e1 1.656440025330000e1 1.684754748410000e1
1.713553472160000e1 1.742844469900000e1 1.772636156370000e1 1.802937090150000e1
1.833755976090000e1 1.865101667880000e1 1.896983170530000e1 1.929409642970000e1
1.962390400700000e1 1.995934918460000e1 2.030052832930000e1 2.064753945530000e1
2.100048225230000e1 2.135945811380000e1 2.172457016660000e1 2.209592330050000e1
2.247362419790000e1 2.285778136500000e1 2.324850516270000e1 2.364590783850000e1
2.405010355840000e1 2.446120844000000e1 2.487934058580000e1 2.530462011720000e1
2.573716920850000e1 2.617711212300000e1 2.662457524750000e1 2.707968712970001e1
2.754257851440000e1 2.801338238120000e1 2.849223398310000e1 2.897927088480000e1
2.947463300270000e1 2.997846264460000e1 3.049090455110000e1 3.101210593690000e1
3.154221653290000e1 3.208138862970000e1 3.262977712110000e1 3.318753954830000e1
3.375483614590000e1 3.433182988700000e1 3.491868653090000e1 3.551557467010000e1
3.612266577900000e1 3.674013426320000e1 3.736815750930000e1 3.800691593640000e1
3.865659304730000e1 3.931737548170000e1 3.998945306970000e1 4.067301888600000e1
4.136826930600001e1 4.207540406160000e1 4.279462629900000e1 4.352614263680000e1
4.427016322540000e1 4.502690180770000e1 4.579657577990001e1 4.657940625440000e1
4.737561812350000e1 4.818544012320000e1 4.900910489980000e1 4.984684907620000e1
5.069891332020000e1 5.156554241320000e1 5.244698532120001e1 5.334349526540000e1
5.425532979600000e1 5.518275086540001e1 5.612602490360000e1 5.708542289500000e1
5.806122045610000e1 5.905369791480000e1 6.006314039040000e1 6.108983787640000e1
6.213408532300001e1 6.319618272240001e1 6.427643519460000e1 6.537515307510001e1
6.649265200440000e1 6.762925301830001e1 6.878528264030000e1 6.996107297530000e1
7.115696180510000e1 7.237329268550001e1 7.361041504480001e1 7.486868428420000e1
7.614846188030000e1 7.745011548820000e1 7.877401904800000e1 8.012055289150000e1
8.149010385180000e1 8.288306537440000e1 8.429983763020001e1 8.574082763040002e1
8.720644934360001e1 8.869712381460001e1 9.021327928530001e1 9.175535131770001e1
9.332378291940001e1 9.491902467040001e1 9.654153485280000e1 9.819177958240001e1
9.987023294260000e1 1.015773771200000e2 1.033137025450000e2 1.050797080300000e2
1.068759009140000e2 1.087027972090000e2 1.105609217460000e2 1.124508083290000e2
1.143729998860000e2 1.163280486240000e2 1.183165161920000e2 1.203389738380000e2
1.223960025750000e2 1.244881933480000e2 1.266161472020000e2 1.287804754570000e2
1.309817998830000e2 1.332207528780000e2 1.354979776500000e2 1.378141284010000e2
1.401698705160000e2 1.425658807560000e2 1.450028474460000e2 1.474814706810000e2
1.500024625220000e2 1.525665471990000e2 1.551744613250000e2 1.578269541040000e2
1.605247875450000e2 1.632687366830000e2 1.660595898030000e2 1.688981486610000e2
1.717852287220000e2 1.747216593870000e2 1.777082842360000e2 1.807459612690000e2
1.838355631520000e2 1.869779774660000e2 1.901741069680000e2 1.934248698430000e2
1.967311999730000e2 2.000940472010000e2 2.035143776100000e2
</PP_R>
<PP_RAB>
1.909670398050000e-6 1.942313548340000e-6 1.975514687730000e-6 2.009283354260000e-6
2.043629249020000e-6 2.078562238920000e-6 2.114092359520000e-6 2.150229817950000e-6
2.186984995800000e-6 2.224368452120000e-6 2.262390926450000e-6 2.301063341910000e-6
2.340396808340000e-6 2.380402625490000e-6 2.421092286250000e-6 2.462477479980000e-6
2.504570095830001e-6 2.547382226210000e-6 2.590926170200000e-6 2.635214437150001e-6
2.680259750210000e-6 2.726075050040000e-6 2.772673498470000e-6 2.820068482350000e-6
2.868273617330000e-6 2.917302751810000e-6 2.967169970930000e-6 3.017889600560000e-6
3.069476211470001e-6 3.121944623500000e-6 3.175309909809999e-6 3.229587401220001e-6
3.284792690580001e-6 3.340941637330000e-6 3.398050371960000e-6 3.456135300700000e-6
3.515213110240000e-6 3.575300772480000e-6 3.636415549440000e-6 3.698574998230001e-6
3.761796976040000e-6 3.826099645330000e-6 3.891501479010000e-6 3.958021265770000e-6
4.025678115440000e-6 4.094491464530000e-6 4.164481081790000e-6 4.235667073869999e-6
4.308069891150000e-6 4.381710333530001e-6 4.456609556509999e-6 4.532789077180000e-6
4.610270780430000e-6 4.689076925260000e-6 4.769230151160000e-6 4.850753484590000e-6
4.933670345640000e-6 5.018004554699999e-6 5.103780339360000e-6 5.191022341360001e-6
5.279755623620000e-6 5.370005677510000e-6 5.461798430120000e-6 5.555160251719999e-6
5.650117963370000e-6 5.746698844570000e-6 5.844930641140000e-6 5.944841573190001e-6
6.046460343180000e-6 6.149816144230000e-6 6.254938668449999e-6 6.361858115510000e-6
6.470605201300001e-6 6.581211166750000e-6 6.693707786809999e-6 6.808127379599998e-6
6.924502815640000e-6 7.042867527340001e-6 7.163255518600000e-6 7.285701374560000e-6
7.410240271530001e-6 7.536907987140000e-6 7.665740910570000e-6 7.796776053019999e-6
7.930051058360002e-6 8.065604213919999e-6 8.203474461490000e-6 8.343701408530000e-6
8.486325339529998e-6 8.631387227570000e-6 8.778928746150001e-6 8.928992281070000e-6
9.081620942690000e-6 9.236858578280000e-6 9.394749784589997e-6 9.555339920710002e-6
9.718675121100000e-6 9.884802308779999e-6 1.005376920890000e-5 1.022562436230000e-5
1.040041713980000e-5 1.057819775580000e-5 1.075901728340000e-5 1.094292766840000e-5
1.112998174480000e-5 1.132023324960000e-5 1.151373683830000e-5 1.171054810080000e-5
1.191072357720000e-5 1.211432077400000e-5 1.232139818070000e-5 1.253201528670000e-5
1.274623259820000e-5 1.296411165560000e-5 1.318571505150000e-5 1.341110644810000e-5
1.364035059620000e-5 1.387351335290000e-5 1.411066170160000e-5 1.435186377040000e-5
1.459718885190000e-5 1.484670742330000e-5 1.510049116640000e-5 1.535861298850000e-5
1.562114704280000e-5 1.588816875040000e-5 1.615975482150000e-5 1.643598327740000e-5
1.671693347320000e-5 1.700268612060000e-5 1.729332331060000e-5 1.758892853780000e-5
1.788958672380000e-5 1.819538424190000e-5 1.850640894180000e-5 1.882275017490000e-5
1.914449881980000e-5 1.947174730880000e-5 1.980458965400000e-5 2.014312147460000e-5
2.048744002420000e-5 2.083764421890000e-5 2.119383466550000e-5 2.155611369070000e-5
2.192458537020000e-5 2.229935555890000e-5 2.268053192090000e-5 2.306822396080000e-5
2.346254305510000e-5 2.386360248399999e-5 2.427151746410000e-5 2.468640518150000e-5
2.510838482540001e-5 2.553757762240001e-5 2.597410687120000e-5 2.641809797840000e-5
2.686967849389999e-5 2.732897814800000e-5 2.779612888880000e-5 2.827126491950000e-5
2.875452273750001e-5 2.924604117350000e-5 2.974596143120000e-5 3.025442712800000e-5
3.077158433630001e-5 3.129758162520000e-5 3.183257010380000e-5 3.237670346380000e-5
3.293013802410000e-5 3.349303277590000e-5 3.406554942780000e-5 3.464785245300001e-5
3.524010913560000e-5 3.584248961970000e-5 3.645516695750000e-5 3.707831715930000e-5
3.771211924419999e-5 3.835675529110000e-5 3.901241049159999e-5 3.967927320270000e-5
4.035753500119999e-5 4.104739073850000e-5 4.174903859690000e-5 4.246268014620000e-5
4.318852040179999e-5 4.392676788360000e-5 4.467763467570000e-5 4.544133648780000e-5
4.621809271650000e-5 4.700812650890001e-5 4.781166482640000e-5 4.862893851000000e-5
4.946018234660000e-5 5.030563513650001e-5 5.116553976199999e-5 5.204014325689999e-5
5.292969687790000e-5 5.383445617670000e-5 5.475468107290000e-5 5.569063592950001e-5
5.664258962810001e-5 5.761081564660000e-5 5.859559213759999e-5 5.959720200840000e-5
6.061593300209999e-5 6.165207778030000e-5 6.270593400750000e-5 6.377780443610000e-5
6.486799699379999e-5 6.597682487180000e-5 6.710460661480000e-5 6.825166621280000e-5
6.941833319369999e-5 7.060494271850000e-5 7.181183567709999e-5 7.303935878640000e-5
7.428786469010000e-5 7.555771205979998e-5 7.684926569810001e-5 7.816289664340001e-5
7.949898227630001e-5 8.085790642840001e-5 8.224005949250000e-5 8.364583853410002e-5
8.507564740660001e-5 8.652989686629999e-5 8.800900469090001e-5 8.951339579959999e-5
9.104350237460000e-5 9.259976398620001e-5 9.418262771800002e-5 9.579254829629999e-5
9.742998822009998e-5 9.909541789410001e-5 1.007893157640000e-4 1.025121684540000e-4
1.042644709060000e-4 1.060467265240000e-4 1.078594473130000e-4 1.097031540350000e-4
1.115783763500000e-4 1.134856529740000e-4 1.154255318290000e-4 1.173985702060000e-4
1.194053349210000e-4 1.214464024780000e-4 1.235223592360000e-4 1.256338015770000e-4
1.277813360790000e-4 1.299655796860000e-4 1.321871598890000e-4 1.344467149050000e-4
1.367448938610000e-4 1.390823569780000e-4 1.414597757660000e-4 1.438778332090000e-4
1.463372239700000e-4 1.488386545840000e-4 1.513828436620000e-4 1.539705221030000e-4
1.566024332950000e-4 1.592793333360000e-4 1.620019912470000e-4 1.647711891950000e-4
1.675877227170000e-4 1.704524009490000e-4 1.733660468580000e-4 1.763294974770000e-4
1.793436041480001e-4 1.824092327670000e-4 1.855272640280000e-4 1.886985936820000e-4
1.919241327910000e-4 1.952048079890000e-4 1.985415617510000e-4 2.019353526620000e-4
2.053871556920000e-4 2.088979624780000e-4 2.124687816050000e-4 2.161006389030000e-4
2.197945777320000e-4 2.235516592900000e-4 2.273729629140000e-4 2.312595863900000e-4
2.352126462700000e-4 2.392332781920000e-4 2.433226372060000e-4 2.474818981040000e-4
2.517122557630000e-4 2.560149254820000e-4 2.603911433360000e-4 2.648421665260000e-4
2.693692737450000e-4 2.739737655440000e-4 2.786569647049999e-4 2.834202166190000e-4
2.882648896770000e-4 2.931923756600000e-4 2.982040901380000e-4 3.033014728820000e-4
3.084859882690000e-4 3.137591257110000e-4 3.191224000790000e-4 3.245773521360000e-4
3.301255489870000e-4 3.357685845190000e-4 3.415080798679999e-4 3.473456838800000e-4
3.532830735860000e-4 3.593219546820000e-4 3.654640620229999e-4 3.717111601160000e-4
3.780650436330000e-4 3.845275379210000e-4 3.911004995300000e-4 3.977858167450000e-4
4.045854101270000e-4 4.115012330680000e-4 4.185352723499999e-4 4.256895487180000e-4
4.329661174549999e-4 4.403670689800000e-4 4.478945294420001e-4 4.555506613350000e-4
4.633376641170001e-4 4.712577748450000e-4 4.793132688120000e-4 4.875064602070000e-4
4.958397027730000e-4 5.043153904920000e-4 5.129359582630001e-4 5.217038826089999e-4
5.306216823849999e-4 5.396919195030000e-4 5.489171996650001e-4 5.583001731170000e-4
5.678435354050000e-4 5.775500281530000e-4 5.874224398469998e-4 5.974636066420000e-4
6.076764131690000e-4 6.180637933710001e-4 6.286287313399999e-4 6.393742621800000e-4
6.503034728720001e-4 6.614195031690000e-4 6.727255464890001e-4 6.842248508420000e-4
6.959207197530000e-4 7.078165132210001e-4 7.199156486760000e-4 7.322216019659999e-4
7.447379083540000e-4 7.574681635310000e-4 7.704160246530001e-4 7.835852113920000e-4
7.969795069979999e-4 8.106027593949999e-4 8.244588822790000e-4 8.385518562449999e-4
8.528857299329999e-4 8.674646211880001e-4 8.822927182420003e-4 8.973742809200001e-4
9.127136418650000e-4 9.283152077770001e-4 9.441834606850000e-4 9.603229592300000e-4
9.767383399780000e-4 9.934343187509999e-4 1.010415691980000e-3 1.027687338080000e-3
1.045254218870000e-3 1.063121380970000e-3 1.081293957280000e-3 1.099777168410000e-3
1.118576324240000e-3 1.137696825400000e-3 1.157144164840000e-3 1.176923929420000e-3
1.197041801460000e-3 1.217503560450000e-3 1.238315084650000e-3 1.259482352810000e-3
1.281011445880000e-3 1.302908548750000e-3 1.325179952040000e-3 1.347832053880000e-3
1.370871361790000e-3 1.394304494510000e-3 1.418138183930000e-3 1.442379277010000e-3
1.467034737750000e-3 1.492111649180000e-3 1.517617215410000e-3 1.543558763700000e-3
1.569943746550000e-3 1.596779743870000e-3 1.624074465100000e-3 1.651835751500000e-3
1.680071578350000e-3 1.708790057250000e-3 1.737999438470000e-3 1.767708113290000e-3
1.797924616450000e-3 1.828657628560000e-3 1.859915978620000e-3 1.891708646550000e-3
1.924044765770000e-3 1.956933625820001e-3 1.990384675030000e-3 2.024407523240000e-3
2.059011944560000e-3 2.094207880170000e-3 2.130005441180000e-3 2.166414911530000e-3
2.203446750960000e-3 2.241111598010000e-3 2.279420273050000e-3 2.318383781430000e-3
2.358013316610000e-3 2.398320263380000e-3 2.439316201150000e-3 2.481012907270000e-3
2.523422360380001e-3 2.566556743910000e-3 2.610428449530000e-3 2.655050080720000e-3
2.700434456430000e-3 2.746594614700000e-3 2.793543816450000e-3 2.841295549290000e-3
2.889863531350000e-3 2.939261715290000e-3 2.989504292230000e-3 3.040605695920000e-3
3.092580606780000e-3 3.145443956200000e-3 3.199210930810001e-3 3.253896976810000e-3
3.309517804450000e-3 3.366089392510000e-3 3.423627992910000e-3 3.482150135390000e-3
3.541672632220000e-3 3.602212583060000e-3 3.663787379870000e-3 3.726414711900000e-3
3.790112570760000e-3 3.854899255630000e-3 3.920793378450000e-3 3.987813869340000e-3
4.055979981990000e-3 4.125311299200001e-3 4.195827738520000e-3 4.267549557960000e-3
4.340497361800000e-3 4.414692106550000e-3 4.490155106900000e-3 4.566908041930001e-3
4.644972961270000e-3 4.724372291460000e-3 4.805128842379999e-3 4.887265813840000e-3
4.970806802189999e-3 5.055775807149999e-3 5.142197238670000e-3 5.230095923939999e-3
5.319497114570000e-3 5.410426493779999e-3 5.502910183830000e-3 5.596974753480000e-3
5.692647225680001e-3 5.789955085270000e-3 5.888926286910000e-3 5.989589263120000e-3
6.091972932420000e-3 6.196106707659999e-3 6.302020504460000e-3 6.409744749790001e-3
6.519310390760000e-3 6.630748903460000e-3 6.744092302000000e-3 6.859373147750000e-3
6.976624558680000e-3 7.095880218840000e-3 7.217174388070001e-3 7.340541911850000e-3
7.466018231280001e-3 7.593639393260000e-3 7.723442060900000e-3 7.855463523990000e-3
7.989741709750000e-3 8.126315193680000e-3 8.265223210720000e-3 8.406505666449998e-3
8.550203148590001e-3 8.696356938630000e-3 8.845009023740001e-3 8.996202108789999e-3
9.149979628619999e-3 9.306385760530000e-3 9.465465436990000e-3 9.627264358509999e-3
9.791829006770001e-3 9.959206658039999e-3 1.012944539670000e-2 1.030259412890000e-2
1.047870259710000e-2 1.065782139380000e-2 1.084000197630000e-2 1.102529668160000e-2
1.121375874140000e-2 1.140544229700000e-2 1.160040241550000e-2 1.179869510510000e-2
1.200037733150000e-2 1.220550703410000e-2 1.241414314260000e-2 1.262634559430000e-2
1.284217535070000e-2 1.306169441570000e-2 1.328496585260000e-2 1.351205380320000e-2