LAMMPS (29 Sep 2021)
Processor partition = 3
# System Setup
units       real
dimension   3
boundary    p p s
atom_style  charge
neigh_modify  delay 5
atom_modify map array sort 0 0.0
newton      on

# Read Data
read_data ./image-0.lmp
Reading data file ...
  orthogonal box = (0.0000000 0.0000000 0.0000000) to (252.43931 94.898589 20.000000)
  8 by 2 by 1 MPI processor grid
  reading atoms ...
  8280 atoms
  read_data CPU = 0.088 seconds

# Force field setup
pair_style reaxff NULL
pair_coeff * * ./H-S-Mo.reaxff Mo S
mass 1 95.75
mass 2 32.06
# neigh_modify delay 10 check yes

# Molecular Static run setup
timestep 0.25  # metal 1=1ps; real 1=1fs

# Charge equllibrium step
fix 0 all qeq/reaxff 1 0.0 10.0 1.0e-6 reaxff  # Charge equillibrium at each step
thermo 10
# run 10000

# Minimization
fix 1 all box/relax x 0.0 y 0.0 vmax 0.01

thermo_style custom step pe lx ly lz pxx pyy pzz press
min_style cg
minimize 1e-10 1e-10 5000 10000

CITE-CITE-CITE-CITE-CITE-CITE-CITE-CITE-CITE-CITE-CITE-CITE-CITE

Your simulation uses code contributions which should be cited:

- pair reaxff command:

@Article{Aktulga12,
 author = {H. M. Aktulga, J. C. Fogarty, S. A. Pandit, A. Y. Grama},
 title = {Parallel reactive molecular dynamics: Numerical methods and algorithmic techniques},
 journal = {Parallel Computing},
 year =    2012,
 volume =  38,
 pages =   {245--259}
}

- fix qeq/reaxff command:

@Article{Aktulga12,
 author = {H. M. Aktulga, J. C. Fogarty, S. A. Pandit, A. Y. Grama},
 title = {Parallel reactive molecular dynamics: Numerical methods and algorithmic techniques},
 journal = {Parallel Computing},
 year =    2012,
 volume =  38,
 pages =   {245--259}
}

CITE-CITE-CITE-CITE-CITE-CITE-CITE-CITE-CITE-CITE-CITE-CITE-CITE

WARNING: Using 'neigh_modify every 1 delay 0 check yes' setting during minimization (../min.cpp:188)
Neighbor list info ...
  update every 1 steps, delay 0 steps, check yes
  max neighbors/atom: 2000, page size: 100000
  master list distance cutoff = 12
  ghost atom cutoff = 12
  binsize = 6, bins = 43 16 1
  2 neighbor lists, perpetual/occasional/extra = 2 0 0
  (1) pair reaxff, perpetual
      attributes: half, newton off, ghost
      pair build: half/bin/newtoff/ghost
      stencil: full/ghost/bin/3d
      bin: standard
  (2) fix qeq/reaxff, perpetual, copy from (1)
      attributes: half, newton off, ghost
      pair build: copy
      stencil: none
      bin: none
Per MPI rank memory allocation (min/avg/max) = 28.38 | 28.66 | 28.76 Mbytes
Step PotEng Lx Ly Lz Pxx Pyy Pzz Press 
       0   -927599.07    252.43931    94.898589    3.2398727    95.078367   -171.28286   -481.59633   -185.93361 
      10   -927599.91    252.44265    94.899297    3.2400128    10.042037   -284.21732   -376.42281   -216.86603 
      20   -927600.67    252.44368    94.899019    3.2401406    61.466989   -230.06693   -403.85335   -190.81776 
      30   -927601.39    252.44473      94.8995    3.2402669    100.45198   -291.06946   -373.99934   -188.20561 
      40   -927602.03    252.44697    94.899026    3.2403912    70.243408   -210.79581   -376.30929   -172.28723 
      50   -927602.65    252.44748    94.899452    3.2405147    129.48776   -257.66293   -361.29843   -163.15787 
      60   -927603.18    252.44992    94.899023    3.2406242    75.284061    -183.8789   -350.49084   -153.02856 
      70    -927603.7    252.45057    94.899504     3.240733    113.79371   -239.06587   -323.51435    -149.5955 
      80   -927604.14    252.45258    94.899082    3.2408373    74.189739   -163.46093   -321.02581   -136.76566 
      90   -927604.56    252.45312    94.899515    3.2409402    109.44339   -210.22843   -297.60562   -132.79689 
     100   -927604.92    252.45493    94.899152    3.2410303    72.650522   -143.06327   -293.98722   -121.46666 
     102   -927604.92    252.45723    94.898021    3.2410304   -45.719234    18.855002   -310.72969   -112.53131 
Loop time of 8.2703 on 16 procs for 102 steps with 8280 atoms

99.6% CPU use with 16 MPI tasks x no OpenMP threads

Minimization stats:
  Stopping criterion = energy tolerance
  Energy initial, next-to-last, final = 
     -927599.072566262  -927604.919847452  -927604.919729572
  Force two-norm initial, final = 228.35560 63.800842
  Force max component initial, final = 193.88066 51.750782
  Final line search alpha, max atom move = 0.00065661968 0.033980582
  Iterations, force evaluations = 102 204

MPI task timing breakdown:
Section |  min time  |  avg time  |  max time  |%varavg| %total
---------------------------------------------------------------
Pair    | 5.166      | 6.1995     | 6.9214     |  23.5 | 74.96
Neigh   | 0.42291    | 0.46863    | 0.50809    |   4.7 |  5.67
Comm    | 0.081872   | 0.54123    | 1.822      |  67.3 |  6.54
Output  | 0.0006819  | 0.00077051 | 0.00085986 |   0.0 |  0.01
Modify  | 0.70272    | 0.74259    | 0.78851    |   3.7 |  8.98
Other   |            | 0.3176     |            |       |  3.84

Nlocal:        517.500 ave         525 max         510 min
Histogram: 8 0 0 0 0 0 0 0 0 8
Nghost:        849.250 ave         863 max         825 min
Histogram: 4 0 0 0 0 4 0 0 0 8
Neighs:        48525.0 ave       49147 max       47903 min
Histogram: 8 0 0 0 0 0 0 0 0 8

Total # of neighbors = 776400
Ave neighs/atom = 93.768116
Neighbor list builds = 192
Dangerous builds = 187
reset_timestep	0
fix 2 all neb 1.0 parallel ideal
unfix 1

min_style quickmin
variable u uloop 200

# region S_bottom_region block INF INF INF INF INF 10.5
# group S_bottom_group region S_bottom_region
# fix 1 S_bottom_group setforce 0.0 0.0 0.0

dump  1 all atom 10 dump.neb.$u
dump  1 all atom 10 dump.neb.4
neb	  1e-6 1e-6 10000 10000 100 final ./image-1.lmp
WARNING: Using 'neigh_modify every 1 delay 0 check yes' setting during minimization (../min.cpp:188)
Per MPI rank memory allocation (min/avg/max) = 28.26 | 28.55 | 28.67 Mbytes
Step PotEng Lx Ly Lz Pxx Pyy Pzz Press 
       0   -802304.59    252.45723    94.898021    3.2407336    458759.98    73304.359    61478.948    197847.76 
      10   -805511.99    252.45723    94.898021    3.2407336    416013.49    37017.883    110930.54     187987.3 
      20    -813259.7    252.45723    94.898021    3.2407336    296772.16    -62089.63    253321.61    162668.04 
      30   -822086.89    252.45723    94.898021    3.2407336    168501.76   -165610.02    411066.48    137986.07 
      40   -835234.48    252.45723    94.898021    3.2407336    77152.665    -189857.9    472942.79    120079.18 
      50   -852397.41    252.45723    94.898021    3.2407336     61549.25   -96174.436    413707.42    126360.74 
      60   -872225.13    252.45723    94.898021    3.2407336    130606.41    244870.46    74506.603    149994.49 
      70   -877462.78    252.45723    94.898021    3.2407336    247431.59    305401.47   -50310.515    167507.52 
      80   -880363.11    252.45723    94.898021    3.2407336    242555.69    309932.11   -33600.753    172962.35 
      90   -882833.11    252.45723    94.898021    3.2407336    235006.74    305096.57   -18231.737    173957.19 
     100   -884660.82    252.45723    94.898021    3.2407336    221965.07    299682.19    -10083.93    170521.11 
     110   -885380.08    252.45723    94.898021    3.2407336    200225.43    287737.84   -24120.629    154614.21 
     120   -885796.95    252.45723    94.898021    3.2407336    199054.48    286544.86   -19023.062    155525.43 
     130   -886150.55    252.45723    94.898021    3.2407336    197875.17    285401.02   -14057.574     156406.2 
     140   -886429.27    252.45723    94.898021    3.2407336    196295.01    284048.99   -9931.0327    156804.32 
     150   -886593.27    252.45723    94.898021    3.2407336     193207.4    281824.14   -8999.8929    155343.88 
     160   -886676.28    252.45723    94.898021    3.2407336    192584.22    281327.78   -7274.5197    155545.83 
     170   -886741.36    252.45723    94.898021    3.2407336    191916.82     280899.1   -5913.9649    155633.98 
     180   -886793.48    252.45723    94.898021    3.2407336    191383.02    280532.99   -4685.8228     155743.4 
     190   -886837.43    252.45723    94.898021    3.2407336    190812.59    280240.28    -3716.944    155778.64 
     200    -886871.5    252.45723    94.898021    3.2407336    190307.86    280026.82   -2910.3721     155808.1 
     210   -886901.75    252.45723    94.898021    3.2407336    189873.74    279807.39   -2098.4277     155860.9 
     220   -886931.85    252.45723    94.898021    3.2407336    189369.89     279574.2   -1413.0555    155843.68 
     230   -886959.22    252.45723    94.898021    3.2407336    188823.03    279390.56   -917.83366    155765.25 
     240   -886981.01    252.45723    94.898021    3.2407336    188320.79    279278.07   -570.33311    155676.17 
     250   -886996.92    252.45723    94.898021    3.2407336    187880.82    279193.09   -267.26114    155602.22 
     260   -887010.24    252.45723    94.898021    3.2407336    187457.52    279086.92   -34.842281     155503.2 
     270   -887022.67    252.45723    94.898021    3.2407336    187075.53    278943.24    150.25958    155389.68 
     280   -887033.68    252.45723    94.898021    3.2407336    186737.18    278816.91    273.91109       155276 
     290   -887043.36    252.45723    94.898021    3.2407336    186448.73    278715.96    359.52253    155174.74 
     300      -887052    252.45723    94.898021    3.2407336    186197.19     278629.5    425.03264    155083.91 
     310   -887059.83    252.45723    94.898021    3.2407336    185969.47    278558.44    475.67502     155001.2 
     320   -887067.54    252.45723    94.898021    3.2407336    185759.03    278497.38    511.94169    154922.78 
     330   -887074.21    252.45723    94.898021    3.2407336    185566.83    278465.71    537.06275    154856.54 
     340   -887080.78    252.45723    94.898021    3.2407336    185365.27    278440.48      566.221    154790.66 
     350   -887088.53    252.45723    94.898021    3.2407336    185144.44    278412.31    602.99438    154719.91 
     360   -887097.84    252.45723    94.898021    3.2407336    184901.61    278379.97    642.77813    154641.45 
     370   -887108.46    252.45723    94.898021    3.2407336    184636.03    278343.83    690.44444    154556.77 
     380   -887120.84    252.45723    94.898021    3.2407336    184303.82    278220.79    738.41284    154421.01 
     390   -887130.05    252.45723    94.898021    3.2407336    183976.32    278071.49    787.47452    154278.43 
     400   -887137.57    252.45723    94.898021    3.2407336    183615.05    277874.83    799.93679     154096.6 
     410   -887147.72    252.45723    94.898021    3.2407336    183346.67    277673.34    862.07358    153960.69 
     420   -887158.76    252.45723    94.898021    3.2407336    183080.86    277416.21     955.5945    153817.55 
     430   -887172.62    252.45723    94.898021    3.2407336    182836.47    277133.06    1085.2171    153684.92 
     440   -887193.25    252.45723    94.898021    3.2407336       182580    276782.59    1241.4949     153534.7 
     450    -887220.1    252.45723    94.898021    3.2407336    182268.48    276489.36    1252.3297    153336.73 
     460   -887242.38    252.45723    94.898021    3.2407336    181952.41    276383.97    1012.8606    153116.41 
     470   -887257.12    252.45723    94.898021    3.2407336    181797.17    276348.23     848.7999    152998.06 
     480   -887268.94    252.45723    94.898021    3.2407336    181668.65    276299.97    794.98334     152921.2 
     490   -887280.75    252.45723    94.898021    3.2407336    181511.66    276188.84    804.95328    152835.15 
     500   -887293.07    252.45723    94.898021    3.2407336    181329.11    276039.58    847.68678    152738.79 
     510   -887306.45    252.45723    94.898021    3.2407336    181141.57    275850.28    914.61843    152635.49 
     520   -887322.92    252.45723    94.898021    3.2407336    180950.86    275606.86    1012.6718    152523.46 
     530   -887343.32    252.45723    94.898021    3.2407336    180715.68    275320.27    1098.5042    152378.15 
     540    -887367.8    252.45723    94.898021    3.2407336    180434.48    275101.19    1105.0916    152213.59 
     550   -887392.43    252.45723    94.898021    3.2407336    180062.26    275106.27     950.6067    152039.71 
     560   -887412.43    252.45723    94.898021    3.2407336    179686.71    275260.11    757.12289    151901.31 
     570   -887430.06    252.45723    94.898021    3.2407336    179422.09    275395.08    653.33939     151823.5 
     580   -887447.76    252.45723    94.898021    3.2407336    179190.86    275471.27    580.60773    151747.58 
     590   -887463.17    252.45723    94.898021    3.2407336    178987.87     275557.8    505.41295     151683.7 
     600   -887476.92    252.45723    94.898021    3.2407336    178822.96    275626.63    476.69811     151642.1 
     610   -887490.11    252.45723    94.898021    3.2407336    178670.66    275657.58    472.75255    151600.33 
     620   -887502.72    252.45723    94.898021    3.2407336    178531.65    275682.53    478.33832    151564.17 
     630   -887514.69    252.45723    94.898021    3.2407336    178392.41    275680.13    488.94146     151520.5 
     640   -887526.57    252.45723    94.898021    3.2407336    178267.98    275659.49    508.94222    151478.81 
     650   -887538.32    252.45723    94.898021    3.2407336    178144.84    275620.16    528.30236     151431.1 
     660   -887549.75    252.45723    94.898021    3.2407336    178004.08    275584.63    523.87721    151370.86 
     670    -887559.5    252.45723    94.898021    3.2407336    177864.61    275555.96    513.54846    151311.37 
     680   -887568.15    252.45723    94.898021    3.2407336    177750.42    275540.84    503.84264    151265.03 
     690   -887576.45    252.45723    94.898021    3.2407336    177646.45     275526.4    498.17392    151223.67 
     700    -887585.6    252.45723    94.898021    3.2407336    177541.88    275501.24    517.42822    151186.85 
     710   -887595.61    252.45723    94.898021    3.2407336     177405.6    275437.49    531.73063    151124.94 
     720   -887606.28    252.45723    94.898021    3.2407336    177258.86    275374.66    542.25056    151058.59 
     730   -887617.06    252.45723    94.898021    3.2407336     177093.7    275310.56    545.17354    150983.15 
     740   -887627.79    252.45723    94.898021    3.2407336     176921.3    275243.61    543.42535    150902.78 
     750   -887638.69    252.45723    94.898021    3.2407336    176760.06    275161.46    560.02699    150827.18 
     760   -887650.33    252.45723    94.898021    3.2407336    176576.52     275045.7    579.49959    150733.91 
     770   -887661.49    252.45723    94.898021    3.2407336     176391.6    274947.62       599.22    150646.15 
     780   -887673.33    252.45723    94.898021    3.2407336    176195.82    274829.27    635.01525    150553.37 
     790   -887680.37    252.45723    94.898021    3.2407336    175984.09    274750.66    677.56822    150470.78 
     800   -887694.71    252.45723    94.898021    3.2407336    175754.21    274520.91    763.35912    150346.16 
     810   -887711.93    252.45723    94.898021    3.2407336    175490.43    274220.01    856.49623    150188.98 
     820   -887730.99    252.45723    94.898021    3.2407336    175216.12    273872.51    968.58992    150019.07 
     830      -887754    252.45723    94.898021    3.2407336     174951.6    273502.81    1106.0752    149853.49 
     840   -887783.57    252.45723    94.898021    3.2407336    174641.46    273076.88    1236.7177    149651.69 
     850    -887818.2    252.45723    94.898021    3.2407336    174257.07    272690.25    1255.0418    149400.78 
     860   -887850.27    252.45723    94.898021    3.2407336    173873.81    272487.72    1091.7302    149151.08 
     870   -887875.76    252.45723    94.898021    3.2407336    173611.61    272410.15    901.85673    148974.54 
     880   -887896.68    252.45723    94.898021    3.2407336    173423.93    272348.62    778.70778    148850.42 
     890   -887914.58    252.45723    94.898021    3.2407336     173268.9    272280.95    723.85617     148757.9 
     900   -887931.08    252.45723    94.898021    3.2407336    173123.13    272209.29    698.67773    148677.03 
     910   -887946.62    252.45723    94.898021    3.2407336    172983.96    272151.53      680.642    148605.38 
     920   -887961.34    252.45723    94.898021    3.2407336    172843.46    272101.37    668.24602    148537.69 
     930   -887975.38    252.45723    94.898021    3.2407336    172709.82    272047.79    667.62713    148475.08 
     940   -887989.05    252.45723    94.898021    3.2407336    172585.19     271972.8    683.89931    148413.96 
     950   -888002.78    252.45723    94.898021    3.2407336    172463.44    271881.12    709.20173    148351.25 
     960   -888017.02    252.45723    94.898021    3.2407336    172339.97    271772.71    741.23613    148284.64 
     970   -888031.92    252.45723    94.898021    3.2407336    172210.11    271656.55    767.51515    148211.39 
     980   -888047.02    252.45723    94.898021    3.2407336     172076.5    271548.85    783.33741    148136.23 
     990   -888062.65    252.45723    94.898021    3.2407336    171937.62    271442.45    790.76748    148056.95 
    1000   -888077.99    252.45723    94.898021    3.2407336    171796.91    271356.27     787.2633    147980.15 
    1010   -888093.41    252.45723    94.898021    3.2407336    171650.76    271297.09    768.31658    147905.39 
    1020   -888108.64    252.45723    94.898021    3.2407336    171494.56    271272.15    729.65003    147832.12 
    1030   -888123.11    252.45723    94.898021    3.2407336    171335.42    271283.68    676.13348    147765.08 
    1040   -888136.85    252.45723    94.898021    3.2407336    171181.04    271329.57    613.25797    147707.95 
    1050   -888149.83    252.45723    94.898021    3.2407336    171036.46    271391.95    549.71761    147659.38 
    1060      -888162    252.45723    94.898021    3.2407336    170911.92    271451.64    496.00911    147619.86 
    1070   -888173.43    252.45723    94.898021    3.2407336    170807.45    271503.76    453.08251     147588.1 
    1080   -888184.36    252.45723    94.898021    3.2407336    170708.92    271551.28    415.81658    147558.67 
    1090   -888194.86    252.45723    94.898021    3.2407336    170618.72    271598.92    381.57573    147533.07 
    1100   -888204.73    252.45723    94.898021    3.2407336    170535.84    271637.62    359.16885    147510.88 
    1110   -888214.55    252.45723    94.898021    3.2407336    170460.78    271664.89     346.4414    147490.71 
    1120   -888224.25    252.45723    94.898021    3.2407336    170389.56    271677.81    342.57369    147469.98 
    1130   -888233.57    252.45723    94.898021    3.2407336    170328.99    271687.04    344.16515     147453.4 
    1140   -888243.14    252.45723    94.898021    3.2407336    170262.16    271681.25    348.88253    147430.76 
    1150   -888252.44    252.45723    94.898021    3.2407336    170198.67    271680.11    353.26437    147410.68 
    1160   -888262.14    252.45723    94.898021    3.2407336     170135.9    271680.01    354.84978    147390.26 
    1170   -888272.01    252.45723    94.898021    3.2407336     170079.4    271683.77    351.66165    147371.61 
    1180   -888281.36    252.45723    94.898021    3.2407336    170018.97    271692.54    345.33028    147352.28 
    1190   -888290.44    252.45723    94.898021    3.2407336    169969.35    271700.93    341.01245    147337.09 
    1200   -888299.29    252.45723    94.898021    3.2407336    169926.18    271708.58     339.3856    147324.71 
    1210    -888308.4    252.45723    94.898021    3.2407336    169897.21    271718.59    336.95038    147317.59 
    1220   -888317.42    252.45723    94.898021    3.2407336     169906.7    271746.96    331.44877    147328.37 
    1230    -888326.7    252.45723    94.898021    3.2407336    169869.17    271748.43    326.46295    147314.69 
    1240   -888336.26    252.45723    94.898021    3.2407336    169831.01    271739.95    326.55643    147299.18 
    1250   -888346.33    252.45723    94.898021    3.2407336    169784.18    271714.42    332.77485    147277.12 
    1260   -888356.17    252.45723    94.898021    3.2407336       169735    271687.87    343.85087    147255.57 
    1270   -888365.57    252.45723    94.898021    3.2407336    169678.89    271665.27    353.53148    147232.57 
    1280   -888374.62    252.45723    94.898021    3.2407336    169623.72    271645.16     353.9507    147207.61 
    1290   -888383.24    252.45723    94.898021    3.2407336    169577.38    271629.62    356.52689    147187.84 
    1300   -888391.83    252.45723    94.898021    3.2407336    169527.71    271608.58    363.23843    147166.51 
    1310   -888399.93    252.45723    94.898021    3.2407336    169473.94    271582.36     376.1471    147144.15 
    1320   -888408.26    252.45723    94.898021    3.2407336    169421.85    271541.21    395.17734    147119.41 
    1330   -888416.73    252.45723    94.898021    3.2407336    169365.04     271492.5    414.65076    147090.73 
    1340   -888425.41    252.45723    94.898021    3.2407336    169309.41    271450.38    430.79639    147063.53 
    1350   -888434.36    252.45723    94.898021    3.2407336    169238.88    271405.56    444.87552    147029.77 
    1360   -888443.26    252.45723    94.898021    3.2407336    169163.41    271356.57     458.6593    146992.88 
    1370   -888452.48    252.45723    94.898021    3.2407336    169082.81    271299.29     472.6321    146951.58 
    1380   -888462.17    252.45723    94.898021    3.2407336    168999.94    271240.74    486.05768    146908.91 
    1390   -888471.87    252.45723    94.898021    3.2407336    168910.11    271186.15    499.13384    146865.13 
    1400   -888482.06    252.45723    94.898021    3.2407336    168813.36    271122.65    514.54669    146816.85 
    1410   -888493.58    252.45723    94.898021    3.2407336    168712.77    271039.25    527.31365    146759.78 
    1420   -888505.49    252.45723    94.898021    3.2407336    168611.41    270959.02    530.87484    146700.44 
    1430   -888517.67    252.45723    94.898021    3.2407336    168514.83    270884.81    523.25031    146640.96 
    1440    -888529.8    252.45723    94.898021    3.2407336    168421.44    270817.86    514.05893    146584.45 
    1450   -888542.01    252.45723    94.898021    3.2407336    168330.08    270757.86    498.35264    146528.76 
    1460   -888553.68    252.45723    94.898021    3.2407336    168247.65     270707.8    477.41325    146477.62 
    1470   -888564.91    252.45723    94.898021    3.2407336    168177.52    270662.56      456.873    146432.32 
    1480   -888575.34    252.45723    94.898021    3.2407336    168115.58    270621.01    436.20956    146390.93 
    1490   -888584.93    252.45723    94.898021    3.2407336    168060.93    270585.26    417.62098     146354.6 
    1500   -888593.36    252.45723    94.898021    3.2407336    168014.68     270564.1    400.83029    146326.54 
    1510   -888601.63    252.45723    94.898021    3.2407336    167973.91    270546.47    382.52925    146300.97 
    1520   -888609.58    252.45723    94.898021    3.2407336    167938.78    270533.58     365.0997    146279.15 
    1530   -888617.55    252.45723    94.898021    3.2407336    167909.16    270525.97    347.30472    146260.81 
    1540   -888625.88    252.45723    94.898021    3.2407336    167885.54    270522.51    326.58141    146244.88 
    1550   -888634.77    252.45723    94.898021    3.2407336    167864.46    270518.19    308.03673    146230.23 
    1560   -888644.11    252.45723    94.898021    3.2407336    167835.84    270510.98    294.53681    146213.79 
    1570   -888653.56    252.45723    94.898021    3.2407336    167793.53    270494.94    291.32929    146193.27 
    1580   -888662.42    252.45723    94.898021    3.2407336    167750.98    270484.14    292.40283    146175.84 
    1590   -888671.62    252.45723    94.898021    3.2407336    167711.14    270471.25    295.46419    146159.28 
    1600   -888681.42    252.45723    94.898021    3.2407336    167673.38    270451.95    302.13603    146142.49 
    1610   -888692.42    252.45723    94.898021    3.2407336    167636.57    270425.24    314.10529     146125.3 
    1620   -888704.54    252.45723    94.898021    3.2407336    167607.67    270407.52    329.88297    146115.03 
    1630   -888717.89    252.45723    94.898021    3.2407336    167552.45    270372.53    346.73087    146090.57 
    1640   -888730.37    252.45723    94.898021    3.2407336    167462.04    270333.07    348.99598    146048.04 
    1650   -888742.41    252.45723    94.898021    3.2407336     167374.2     270304.6    341.64755    146006.81 
    1660   -888754.66    252.45723    94.898021    3.2407336    167294.15    270295.36    326.38733    145971.96 
    1670   -888766.74    252.45723    94.898021    3.2407336    167220.41    270317.31    293.87346    145943.87 
    1680   -888778.11    252.45723    94.898021    3.2407336    167156.73    270367.49    257.63273    145927.28 
    1690   -888790.08    252.45723    94.898021    3.2407336    167103.74    270421.05     237.1561    145920.65 
    1700   -888803.09    252.45723    94.898021    3.2407336    167064.92    270467.62    228.40152    145920.31 
    1710   -888815.37    252.45723    94.898021    3.2407336     166989.8    270479.78    218.86799    145896.15 
    1720   -888825.39    252.45723    94.898021    3.2407336    166921.21    270494.21     210.3223    145875.24 
    1730   -888835.05    252.45723    94.898021    3.2407336    166869.22    270508.13    201.07111    145859.48 
    1740   -888843.86    252.45723    94.898021    3.2407336    166827.81    270533.58    186.12867    145849.17 
    1750   -888852.21    252.45723    94.898021    3.2407336    166796.01    270554.88    173.94082    145841.61 
    1760   -888860.39    252.45723    94.898021    3.2407336    166773.08     270568.1    172.79293    145837.99 
    1770   -888868.63    252.45723    94.898021    3.2407336    166751.26    270575.95    171.76222    145832.99 
    1780   -888877.14    252.45723    94.898021    3.2407336    166716.05    270564.38    178.33617    145819.59 
    1790   -888885.44    252.45723    94.898021    3.2407336    166661.86    270538.57    192.99513    145797.81 
    1800    -888893.3    252.45723    94.898021    3.2407336    166601.55    270503.18    217.52311    145774.08 
    1810   -888901.52    252.45723    94.898021    3.2407336    166546.06    270466.74    232.36265    145748.39 
    1820   -888909.53    252.45723    94.898021    3.2407336    166492.17    270437.62    241.01144     145723.6 
    1830   -888917.65    252.45723    94.898021    3.2407336    166441.84    270416.53    240.45425    145699.61 
    1840    -888925.6    252.45723    94.898021    3.2407336    166394.58    270394.59    241.59084    145676.92 
    1850   -888933.56    252.45723    94.898021    3.2407336     166337.1    270358.57    253.52846    145649.73 
    1860   -888940.83    252.45723    94.898021    3.2407336     166269.9    270311.22    264.79627     145615.3 
    1870   -888947.32    252.45723    94.898021    3.2407336    166209.96    270259.14    279.14596    145582.75 
    1880   -888953.94    252.45723    94.898021    3.2407336     166156.2    270204.43    289.11954    145549.91 
    1890   -888960.59    252.45723    94.898021    3.2407336    166108.32    270155.93    293.29527    145519.18 
    1900   -888967.41    252.45723    94.898021    3.2407336    166063.97    270121.38    287.88591    145491.08 
    1910   -888973.89    252.45723    94.898021    3.2407336    166023.19    270109.66    263.12419    145465.32 
    1920   -888979.18    252.45723    94.898021    3.2407336    165986.77     270109.6    248.10926    145448.16 
    1930   -888984.93    252.45723    94.898021    3.2407336    165955.16    270103.26    232.36535    145430.26 
    1940   -888990.18    252.45723    94.898021    3.2407336    165919.09    270087.88    225.68762    145410.89 
    1950   -888995.13    252.45723    94.898021    3.2407336    165890.13    270074.74    224.28781    145396.38 
    1960   -889000.01    252.45723    94.898021    3.2407336    165861.74    270058.76    226.64232    145382.38 
    1970   -889005.22    252.45723    94.898021    3.2407336     165834.1    270047.03    221.72214    145367.62 
    1980   -889010.06    252.45723    94.898021    3.2407336    165807.16    270042.52    216.59413    145355.43 
    1990   -889015.33    252.45723    94.898021    3.2407336    165783.75    270039.19    204.34572    145342.43 
    2000   -889020.08    252.45723    94.898021    3.2407336    165762.12    270038.07     207.2327     145335.8 
    2010   -889025.87    252.45723    94.898021    3.2407336     165740.9    270030.76    198.09013    145323.25 
    2020   -889031.55    252.45723    94.898021    3.2407336    165722.89    270024.01    188.01962    145311.64 
    2030   -889036.78    252.45723    94.898021    3.2407336    165707.89     270014.9     188.1082    145303.63 
    2040   -889042.77    252.45723    94.898021    3.2407336    165693.78    269998.52    183.83308    145292.04 
    2050   -889048.87    252.45723    94.898021    3.2407336    165675.14    269971.46    194.80634    145280.47 
    2060   -889055.42    252.45723    94.898021    3.2407336     165652.8     269939.3    204.17685    145265.43 
    2070   -889063.41    252.45723    94.898021    3.2407336    165638.17    269909.11     211.2702    145252.85 
    2080   -889072.01    252.45723    94.898021    3.2407336    165624.87    269874.64    233.98009     145244.5 
    2090   -889082.96    252.45723    94.898021    3.2407336    165591.76    269817.79    239.10884    145216.22 
    2099   -889091.39    252.45723    94.898021    3.2407336    165540.51    269762.68    257.18277    145186.79 
Loop time of 87.619 on 16 procs for 2099 steps with 8280 atoms

99.7% CPU use with 16 MPI tasks x no OpenMP threads

Minimization stats:
  Stopping criterion = energy tolerance
  Energy initial, next-to-last, final = 
     -802304.590054758  -889090.961207698  -889091.393881553
  Force two-norm initial, final = 12507.212 127.61663
  Force max component initial, final = 186.27130 28.596363
  Final line search alpha, max atom move = 0.0000000 0.0000000
  Iterations, force evaluations = 2099 2099

MPI task timing breakdown:
Section |  min time  |  avg time  |  max time  |%varavg| %total
---------------------------------------------------------------
Pair    | 57.378     | 64.363     | 68.414     |  38.4 | 73.46
Neigh   | 0          | 0          | 0          |   0.0 |  0.00
Comm    | 0.30252    | 3.3019     | 11.13      | 165.3 |  3.77
Output  | 0.23176    | 0.23376    | 0.23501    |   0.2 |  0.27
Modify  | 18.053     | 19.317     | 21.942     |  35.0 | 22.05
Other   |            | 0.4028     |            |       |  0.46

Nlocal:        517.500 ave         525 max         510 min
Histogram: 8 0 0 0 0 0 0 0 0 8
Nghost:        860.500 ave         885 max         847 min
Histogram: 8 0 0 4 0 0 0 0 0 4
Neighs:        48677.2 ave       49307 max       48048 min
Histogram: 8 0 0 0 0 0 0 0 0 8

Total # of neighbors = 778836
Ave neighs/atom = 94.062319
Neighbor list builds = 0
Dangerous builds = 0
WARNING: Using 'neigh_modify every 1 delay 0 check yes' setting during minimization (../min.cpp:188)
Per MPI rank memory allocation (min/avg/max) = 28.28 | 28.56 | 28.68 Mbytes
Step PotEng Lx Ly Lz Pxx Pyy Pzz Press 
    2099   -889091.39    252.45723    94.898021     3.618063    148276.19    241628.98    230.51236    130045.23 
    2100   -889091.39    252.45723    94.898021     3.618063    148252.19    241598.56    205.04011    130018.59 
    2105   -889091.78    252.45723    94.898021     3.618063     148251.1    241597.29    202.18193    130016.86 
Loop time of 0.295604 on 16 procs for 6 steps with 8280 atoms

99.7% CPU use with 16 MPI tasks x no OpenMP threads

Minimization stats:
  Stopping criterion = energy tolerance
  Energy initial, next-to-last, final = 
     -889091.393604034  -889091.712118355  -889091.781188987
  Force two-norm initial, final = 127.61499 127.42836
  Force max component initial, final = 28.599578 28.501669
  Final line search alpha, max atom move = 0.0000000 0.0000000
  Iterations, force evaluations = 6 6

MPI task timing breakdown:
Section |  min time  |  avg time  |  max time  |%varavg| %total
---------------------------------------------------------------
Pair    | 0.18859    | 0.21444    | 0.23235    |   2.7 | 72.54
Neigh   | 0          | 0          | 0          |   0.0 |  0.00
Comm    | 0.00039472 | 0.013001   | 0.042758   |  10.4 |  4.40
Output  | 0.00076481 | 0.00077148 | 0.00084666 |   0.0 |  0.26
Modify  | 0.059171   | 0.064474   | 0.078169   |   3.1 | 21.81
Other   |            | 0.002916   |            |       |  0.99

Nlocal:        517.500 ave         525 max         510 min
Histogram: 8 0 0 0 0 0 0 0 0 8
Nghost:        862.188 ave         885 max         835 min
Histogram: 2 0 6 0 0 0 2 0 0 6
Neighs:        49411.9 ave       50080 max       48742 min
Histogram: 6 2 0 0 0 0 0 0 0 8

Total # of neighbors = 790591
Ave neighs/atom = 95.482005
Neighbor list builds = 0
Dangerous builds = 0
Total wall time: 0:01:36
