LAMMPS (29 Sep 2021)
Running on 7 partitions of processors
Reading NEB coordinate file(s) ...
Setting up regular NEB ...
Step MaxReplicaForce MaxAtomForce GradV0 GradV1 GradVc EBF EBR RDT RD1 PE1 RD2 PE2 ... RDN PEN
0    12928.895    37696.492    30.611403    11619.104    12509.765    125300.33    132454.07    91.400836            0   -927604.92   0.16666667   -853524.42   0.33333333   -808378.66          0.5   -802304.59   0.66666667   -815072.47   0.83333333   -855329.31            1   -934758.66 
100    1400.9896    470.02772     9.628759    303.74255    780.47286    45278.012    80231.188    110.89602            0   -927607.72   0.18245263   -896518.25   0.34521515   -882329.71   0.48697678   -884660.82   0.62733051   -886717.82   0.77586905   -909752.32            1    -962560.9 
200    396.92884    2385.3279    1.6913517     40.93019    230.66515     42637.43    77972.703    121.75919            0   -927608.18   0.21338671   -907803.91   0.37558295   -884970.75    0.5065173    -886871.5   0.63535251   -888071.92    0.7756103    -912328.7            1   -962943.46 
300     776.1819    1186.4106   0.35958112    5.7989757    198.03817    42354.827    77697.245    124.84495            0    -927608.2   0.21783013   -908643.29   0.38291837   -885253.37    0.5113347      -887052   0.63726592    -888440.7   0.77739304   -915760.32            1   -962950.62 
400    269.22288    527.54786   0.11020416    1.5890514    192.10651      42126.8     77469.36    128.26353            0    -927608.2   0.21231182   -908856.76   0.37937943    -885481.4   0.50500869   -887137.57   0.62713131   -889297.17    0.7625859   -922961.94            1   -962950.76 
500    512.01961    2380.7417  0.048924447   0.39125027    186.78925    41934.177    77276.744     131.4191            0    -927608.2   0.20682717   -908996.25   0.37533246   -885674.03   0.49847879   -887293.07   0.61755636   -892101.85   0.75456412    -923557.1            1   -962950.77 
600    294.34016     1561.621  0.024897498   0.28963324    185.23968    41721.034    77063.601    134.80932            0    -927608.2   0.20164735   -909126.06   0.37153492   -885887.17    0.4921435   -887476.92   0.60869624   -894062.16     0.748862   -924222.13            1   -962950.77 
700     339.2212    2889.6682  0.014342721    0.2581926    191.91199    41449.146    76791.714    137.91015            0    -927608.2   0.19771409    -909245.4   0.36945049   -886159.06   0.48789495    -887585.6   0.60179464    -895416.1   0.74568117    -924753.9            1   -962950.77 
800    252.16721    3251.9406    0.0118238   0.23408378    165.56433    41174.224    76516.794    141.42405            0    -927608.2   0.19419731   -909372.86   0.36815339   -886433.98   0.48422904   -887694.71    0.5949268   -896596.31   0.74247069   -925222.33            1   -962950.77 
900    246.65338    3200.5885 0.0064680691   0.21788056     167.9767    40987.265    76329.835    144.02979            0    -927608.2   0.19221227   -909468.95   0.36815602   -886620.94   0.48258607   -887931.08    0.5914015    -897304.5   0.74029411    -925502.1            1   -962950.77 
1000    238.58181    3163.1133 0.0063118263   0.20914983    219.48241    40803.486    76146.056    145.57241            0    -927608.2   0.19126424   -909524.23   0.36877297   -886804.72   0.48230398   -888077.99   0.59023682   -897680.41   0.73931149   -925655.67            1   -962950.77 
1100    198.47971     2659.058 0.0067752422   0.20227613    170.80575    40585.398    75927.969    146.90632            0    -927608.2    0.1906247    -909570.5   0.36975972   -887022.81   0.48254492   -888204.73   0.58984945   -897947.25   0.73869586   -925806.18            1   -962950.77 
1200    175.84503     2574.871  0.005577585   0.19597971    161.74419    40456.819     75799.39    147.99171            0    -927608.2   0.19034161      -909610   0.37089079   -887151.38   0.48308207   -888299.29   0.58978275   -898126.72   0.73817552   -925912.73            1   -962950.77 
1300    151.18605    2262.1462 0.0098502258   0.19012178    155.43955    40338.296    75680.868    148.98133            0    -927608.2    0.1902534   -909647.18   0.37228877   -887269.91   0.48396292   -888391.83   0.59001285   -898282.06   0.73776108   -926016.32            1   -962950.77 
1400    211.25396    3598.1009 0.0083003315   0.18458685    152.77829    40214.644    75557.215    149.92876            0    -927608.2   0.19030118   -909683.21   0.37390293   -887393.56   0.48509978   -888482.06   0.59044026   -898475.57   0.73742178    -926149.8            1   -962950.77 
1500    230.81099    2561.4142 0.0085335172    0.1795229    159.04485     40088.99    75431.561    150.79695            0    -927608.2   0.19042361   -909715.62   0.37554311   -887519.21   0.48631626   -888593.36   0.59093625   -898682.73   0.73720988   -926339.49            1   -962950.77 
1600    219.06864    2180.7086 0.0055994847   0.17519429    162.88595    39965.948     75308.52    151.55345            0    -927608.2   0.19057714   -909742.87   0.37710398   -887642.25   0.48751918   -888681.42   0.59149824   -898848.65   0.73705563   -926632.67            1   -962950.77 
1700    180.89194    1648.1892 0.0074158083   0.16925023    181.89544    39726.476    75069.048    152.61543            0    -927608.2   0.19083704   -909779.23   0.37951609   -887881.73   0.48944003   -888803.09   0.59257883   -899008.36   0.73687257   -926903.76            1   -962950.77 
1800    159.03957    2714.7775 0.0068412128   0.16355802    159.99143    39529.136    74871.707    153.55273            0    -927608.2   0.19129949   -909807.72   0.38202225   -888079.07     0.491506    -888893.3   0.59377668    -899151.3   0.73666873   -926993.94            1   -962950.77 
1900    136.81189    1592.3502 0.0074072423   0.15935925    137.60052    39385.352    74727.923    154.26999            0    -927608.2   0.19176618   -909831.92   0.38413593   -888222.85   0.49327921   -888967.41   0.59482527   -899249.29   0.73650547   -927030.94            1   -962950.77 
2000    139.91381    950.74002 0.0068083965   0.15539703    140.36945     39280.67    74623.242       154.88            0    -927608.2   0.19223039   -909851.85   0.38601494   -888327.53   0.49486465   -889020.08   0.59575733   -899362.86   0.73634434   -927058.17            1   -962950.78 
2099    134.27981    817.75197 0.0089948258   0.15185034    134.62853     39181.33    74523.903    155.42811            0    -927608.2   0.19270337    -909869.3   0.38781416   -888426.87   0.49640041   -889091.39   0.59660473   -899463.39   0.73616835   -927083.42            1   -962950.78 
Setting up climbing ...
Climbing replica = 3
Step MaxReplicaForce MaxAtomForce GradV0 GradV1 GradVc EBF EBR RDT RD1 PE1 RD2 PE2 ... RDN PEN
2099    134.62784    824.86684  0.008860419   0.15188556    134.62784    39181.331    74523.903    155.42811            0    -927608.2   0.19270337    -909869.3   0.38781416   -888426.87   0.49640041   -889091.39   0.59660473   -899463.39   0.73616835   -927083.42            1   -962950.77 
2105    134.65489    826.02817 0.0093883998   0.15188018    134.65489    39181.136    74523.707    155.42921            0    -927608.2   0.19270417   -909869.33   0.38781722   -888427.07    0.4964036   -889091.78   0.59660653   -899463.53   0.73616816   -927083.47            1   -962950.77 
[1652714716.322829] [cn513-17-r:247483:0]          mpool.c:43   UCX  WARN  object 0x33b5f40 was not returned to mpool ucp_requests
[1652714716.322866] [cn513-17-r:247483:0]          mpool.c:43   UCX  WARN  object 0x33b6100 was not returned to mpool ucp_requests
[1652714716.322872] [cn513-17-r:247483:0]          mpool.c:43   UCX  WARN  object 0x33b62c0 was not returned to mpool ucp_requests
[1652714716.322876] [cn513-17-r:247483:0]          mpool.c:43   UCX  WARN  object 0x33b6480 was not returned to mpool ucp_requests
[1652714716.322880] [cn513-17-r:247483:0]          mpool.c:43   UCX  WARN  object 0x33b6640 was not returned to mpool ucp_requests
[1652714716.322885] [cn513-17-r:247483:0]          mpool.c:43   UCX  WARN  object 0x33b6800 was not returned to mpool ucp_requests
[1652714716.322889] [cn513-17-r:247483:0]          mpool.c:43   UCX  WARN  object 0x33b69c0 was not returned to mpool ucp_requests
[1652714716.322893] [cn513-17-r:247483:0]          mpool.c:43   UCX  WARN  object 0x33b6b80 was not returned to mpool ucp_requests
[1652714716.322897] [cn513-17-r:247483:0]          mpool.c:43   UCX  WARN  object 0x33b6d40 was not returned to mpool ucp_requests
[1652714716.322902] [cn513-17-r:247483:0]          mpool.c:43   UCX  WARN  object 0x33b6f00 was not returned to mpool ucp_requests
[1652714716.322906] [cn513-17-r:247483:0]          mpool.c:43   UCX  WARN  object 0x33b70c0 was not returned to mpool ucp_requests
[1652714716.322910] [cn513-17-r:247483:0]          mpool.c:43   UCX  WARN  object 0x33b7280 was not returned to mpool ucp_requests
[1652714716.322916] [cn513-17-r:247483:0]          mpool.c:43   UCX  WARN  object 0x33b7440 was not returned to mpool ucp_requests
[1652714716.322921] [cn513-17-r:247483:0]          mpool.c:43   UCX  WARN  object 0x33b7600 was not returned to mpool ucp_requests
[1652714716.322925] [cn513-17-r:247483:0]          mpool.c:43   UCX  WARN  object 0x33b77c0 was not returned to mpool ucp_requests
[1652714716.322929] [cn513-17-r:247483:0]          mpool.c:43   UCX  WARN  object 0x33b7980 was not returned to mpool ucp_requests
[1652714716.322933] [cn513-17-r:247483:0]          mpool.c:43   UCX  WARN  object 0x33b7b40 was not returned to mpool ucp_requests
[1652714716.322938] [cn513-17-r:247483:0]          mpool.c:43   UCX  WARN  object 0x33b7d00 was not returned to mpool ucp_requests
[1652714716.322942] [cn513-17-r:247483:0]          mpool.c:43   UCX  WARN  object 0x33b7ec0 was not returned to mpool ucp_requests
[1652714716.322946] [cn513-17-r:247483:0]          mpool.c:43   UCX  WARN  object 0x33b8080 was not returned to mpool ucp_requests
[1652714716.322952] [cn513-17-r:247483:0]          mpool.c:43   UCX  WARN  object 0x33b8240 was not returned to mpool ucp_requests
[1652714716.322956] [cn513-17-r:247483:0]          mpool.c:43   UCX  WARN  object 0x33b8400 was not returned to mpool ucp_requests
[1652714716.322961] [cn513-17-r:247483:0]          mpool.c:43   UCX  WARN  object 0x33b85c0 was not returned to mpool ucp_requests
[1652714716.322965] [cn513-17-r:247483:0]          mpool.c:43   UCX  WARN  object 0x33b8780 was not returned to mpool ucp_requests
[1652714716.322969] [cn513-17-r:247483:0]          mpool.c:43   UCX  WARN  object 0x33b8940 was not returned to mpool ucp_requests
[1652714716.322973] [cn513-17-r:247483:0]          mpool.c:43   UCX  WARN  object 0x33b8b00 was not returned to mpool ucp_requests
[1652714716.322977] [cn513-17-r:247483:0]          mpool.c:43   UCX  WARN  object 0x33b8cc0 was not returned to mpool ucp_requests
[1652714716.322981] [cn513-17-r:247483:0]          mpool.c:43   UCX  WARN  object 0x33b8e80 was not returned to mpool ucp_requests
[1652714716.322985] [cn513-17-r:247483:0]          mpool.c:43   UCX  WARN  object 0x33b9040 was not returned to mpool ucp_requests
[1652714716.322992] [cn513-17-r:247483:0]          mpool.c:43   UCX  WARN  object 0x33b9200 was not returned to mpool ucp_requests
[1652714716.322996] [cn513-17-r:247483:0]          mpool.c:43   UCX  WARN  object 0x33b93c0 was not returned to mpool ucp_requests
[1652714716.323000] [cn513-17-r:247483:0]          mpool.c:43   UCX  WARN  object 0x33b9580 was not returned to mpool ucp_requests
[1652714716.323005] [cn513-17-r:247483:0]          mpool.c:43   UCX  WARN  object 0x33b9740 was not returned to mpool ucp_requests
[1652714716.323015] [cn513-17-r:247483:0]          mpool.c:43   UCX  WARN  object 0x33b9900 was not returned to mpool ucp_requests
[1652714716.323020] [cn513-17-r:247483:0]          mpool.c:43   UCX  WARN  object 0x33b9ac0 was not returned to mpool ucp_requests
[1652714716.323024] [cn513-17-r:247483:0]          mpool.c:43   UCX  WARN  object 0x33b9c80 was not returned to mpool ucp_requests
[1652714716.323029] [cn513-17-r:247483:0]          mpool.c:43   UCX  WARN  object 0x33b9e40 was not returned to mpool ucp_requests
[1652714716.323033] [cn513-17-r:247483:0]          mpool.c:43   UCX  WARN  object 0x33ba000 was not returned to mpool ucp_requests
[1652714716.323037] [cn513-17-r:247483:0]          mpool.c:43   UCX  WARN  object 0x33ba1c0 was not returned to mpool ucp_requests
[1652714716.323041] [cn513-17-r:247483:0]          mpool.c:43   UCX  WARN  object 0x33ba380 was not returned to mpool ucp_requests
[1652714716.323046] [cn513-17-r:247483:0]          mpool.c:43   UCX  WARN  object 0x33ba540 was not returned to mpool ucp_requests
[1652714716.323050] [cn513-17-r:247483:0]          mpool.c:43   UCX  WARN  object 0x33ba700 was not returned to mpool ucp_requests
[1652714716.323058] [cn513-17-r:247483:0]          mpool.c:43   UCX  WARN  object 0x33ba8c0 was not returned to mpool ucp_requests
[1652714716.323062] [cn513-17-r:247483:0]          mpool.c:43   UCX  WARN  object 0x33baa80 was not returned to mpool ucp_requests
[1652714716.323067] [cn513-17-r:247483:0]          mpool.c:43   UCX  WARN  object 0x33bac40 was not returned to mpool ucp_requests
[1652714716.323071] [cn513-17-r:247483:0]          mpool.c:43   UCX  WARN  object 0x33bae00 was not returned to mpool ucp_requests
[1652714716.323075] [cn513-17-r:247483:0]          mpool.c:43   UCX  WARN  object 0x33bafc0 was not returned to mpool ucp_requests
[1652714716.323081] [cn513-17-r:247483:0]          mpool.c:43   UCX  WARN  object 0x33bb180 was not returned to mpool ucp_requests
[1652714716.323085] [cn513-17-r:247483:0]          mpool.c:43   UCX  WARN  object 0x33bb340 was not returned to mpool ucp_requests
[1652714716.323089] [cn513-17-r:247483:0]          mpool.c:43   UCX  WARN  object 0x33bb500 was not returned to mpool ucp_requests
[1652714716.323093] [cn513-17-r:247483:0]          mpool.c:43   UCX  WARN  object 0x33bb6c0 was not returned to mpool ucp_requests
[1652714716.323099] [cn513-17-r:247483:0]          mpool.c:43   UCX  WARN  object 0x33bb880 was not returned to mpool ucp_requests
[1652714716.323103] [cn513-17-r:247483:0]          mpool.c:43   UCX  WARN  object 0x33bba40 was not returned to mpool ucp_requests
[1652714716.323107] [cn513-17-r:247483:0]          mpool.c:43   UCX  WARN  object 0x33bbc00 was not returned to mpool ucp_requests
[1652714716.323149] [cn513-17-r:247483:0]          mpool.c:43   UCX  WARN  object 0x33bbdc0 was not returned to mpool ucp_requests
[1652714716.323155] [cn513-17-r:247483:0]          mpool.c:43   UCX  WARN  object 0x33bbf80 was not returned to mpool ucp_requests
[1652714716.323159] [cn513-17-r:247483:0]          mpool.c:43   UCX  WARN  object 0x33bc140 was not returned to mpool ucp_requests
[1652714716.323164] [cn513-17-r:247483:0]          mpool.c:43   UCX  WARN  object 0x33bc300 was not returned to mpool ucp_requests
[1652714716.323170] [cn513-17-r:247483:0]          mpool.c:43   UCX  WARN  object 0x33bc4c0 was not returned to mpool ucp_requests
[1652714716.323174] [cn513-17-r:247483:0]          mpool.c:43   UCX  WARN  object 0x33bc680 was not returned to mpool ucp_requests
[1652714716.323178] [cn513-17-r:247483:0]          mpool.c:43   UCX  WARN  object 0x33bc840 was not returned to mpool ucp_requests
[1652714716.323185] [cn513-17-r:247483:0]          mpool.c:43   UCX  WARN  object 0x33a0980 was not returned to mpool ucp_requests
[1652714716.323234] [cn513-17-r:247483:0]          mpool.c:43   UCX  WARN  object 0x33a0b40 was not returned to mpool ucp_requests
[1652714716.323242] [cn513-17-r:247483:0]          mpool.c:43   UCX  WARN  object 0x33a0d00 was not returned to mpool ucp_requests
[1652714716.323247] [cn513-17-r:247483:0]          mpool.c:43   UCX  WARN  object 0x33a0ec0 was not returned to mpool ucp_requests
[1652714716.323251] [cn513-17-r:247483:0]          mpool.c:43   UCX  WARN  object 0x33a1080 was not returned to mpool ucp_requests
[1652714716.323256] [cn513-17-r:247483:0]          mpool.c:43   UCX  WARN  object 0x33a1240 was not returned to mpool ucp_requests
[1652714716.323260] [cn513-17-r:247483:0]          mpool.c:43   UCX  WARN  object 0x33a1400 was not returned to mpool ucp_requests
[1652714716.323269] [cn513-17-r:247483:0]          mpool.c:43   UCX  WARN  object 0x33a15c0 was not returned to mpool ucp_requests
[1652714716.323273] [cn513-17-r:247483:0]          mpool.c:43   UCX  WARN  object 0x33a1780 was not returned to mpool ucp_requests
[1652714716.323280] [cn513-17-r:247483:0]          mpool.c:43   UCX  WARN  object 0x33a1940 was not returned to mpool ucp_requests
[1652714716.323284] [cn513-17-r:247483:0]          mpool.c:43   UCX  WARN  object 0x33a1b00 was not returned to mpool ucp_requests
[1652714716.323288] [cn513-17-r:247483:0]          mpool.c:43   UCX  WARN  object 0x33a1cc0 was not returned to mpool ucp_requests
[1652714716.323292] [cn513-17-r:247483:0]          mpool.c:43   UCX  WARN  object 0x33a1e80 was not returned to mpool ucp_requests
[1652714716.323298] [cn513-17-r:247483:0]          mpool.c:43   UCX  WARN  object 0x33a2040 was not returned to mpool ucp_requests
[1652714716.323303] [cn513-17-r:247483:0]          mpool.c:43   UCX  WARN  object 0x33a2200 was not returned to mpool ucp_requests
[1652714716.323307] [cn513-17-r:247483:0]          mpool.c:43   UCX  WARN  object 0x33a23c0 was not returned to mpool ucp_requests
[1652714716.323314] [cn513-17-r:247483:0]          mpool.c:43   UCX  WARN  object 0x33a2580 was not returned to mpool ucp_requests
[1652714716.323318] [cn513-17-r:247483:0]          mpool.c:43   UCX  WARN  object 0x33a2740 was not returned to mpool ucp_requests
[1652714716.323322] [cn513-17-r:247483:0]          mpool.c:43   UCX  WARN  object 0x33a2900 was not returned to mpool ucp_requests
[1652714716.323330] [cn513-17-r:247483:0]          mpool.c:43   UCX  WARN  object 0x33a2ac0 was not returned to mpool ucp_requests
[1652714716.323335] [cn513-17-r:247483:0]          mpool.c:43   UCX  WARN  object 0x33a2c80 was not returned to mpool ucp_requests
[1652714716.323340] [cn513-17-r:247483:0]          mpool.c:43   UCX  WARN  object 0x33a2e40 was not returned to mpool ucp_requests
[1652714716.323344] [cn513-17-r:247483:0]          mpool.c:43   UCX  WARN  object 0x33a3000 was not returned to mpool ucp_requests
[1652714716.323348] [cn513-17-r:247483:0]          mpool.c:43   UCX  WARN  object 0x33a31c0 was not returned to mpool ucp_requests
[1652714716.323352] [cn513-17-r:247483:0]          mpool.c:43   UCX  WARN  object 0x33a3380 was not returned to mpool ucp_requests
[1652714716.323356] [cn513-17-r:247483:0]          mpool.c:43   UCX  WARN  object 0x33a3540 was not returned to mpool ucp_requests
[1652714716.323361] [cn513-17-r:247483:0]          mpool.c:43   UCX  WARN  object 0x33a3700 was not returned to mpool ucp_requests
[1652714716.323367] [cn513-17-r:247483:0]          mpool.c:43   UCX  WARN  object 0x33a38c0 was not returned to mpool ucp_requests
[1652714716.323371] [cn513-17-r:247483:0]          mpool.c:43   UCX  WARN  object 0x33a3a80 was not returned to mpool ucp_requests
[1652714716.323375] [cn513-17-r:247483:0]          mpool.c:43   UCX  WARN  object 0x33a3c40 was not returned to mpool ucp_requests
[1652714716.323379] [cn513-17-r:247483:0]          mpool.c:43   UCX  WARN  object 0x33a3e00 was not returned to mpool ucp_requests
[1652714716.323383] [cn513-17-r:247483:0]          mpool.c:43   UCX  WARN  object 0x33a3fc0 was not returned to mpool ucp_requests
[1652714716.323389] [cn513-17-r:247483:0]          mpool.c:43   UCX  WARN  object 0x33a4180 was not returned to mpool ucp_requests
[1652714716.323400] [cn513-17-r:247483:0]          mpool.c:43   UCX  WARN  object 0x33a4340 was not returned to mpool ucp_requests
[1652714716.323404] [cn513-17-r:247483:0]          mpool.c:43   UCX  WARN  object 0x33a4500 was not returned to mpool ucp_requests
[1652714716.323409] [cn513-17-r:247483:0]          mpool.c:43   UCX  WARN  object 0x33a46c0 was not returned to mpool ucp_requests
[1652714716.323413] [cn513-17-r:247483:0]          mpool.c:43   UCX  WARN  object 0x33a4880 was not returned to mpool ucp_requests
[1652714716.323417] [cn513-17-r:247483:0]          mpool.c:43   UCX  WARN  object 0x33a4a40 was not returned to mpool ucp_requests
[1652714716.323423] [cn513-17-r:247483:0]          mpool.c:43   UCX  WARN  object 0x33a4c00 was not returned to mpool ucp_requests
[1652714716.323431] [cn513-17-r:247483:0]          mpool.c:43   UCX  WARN  object 0x33a4dc0 was not returned to mpool ucp_requests
[1652714716.323437] [cn513-17-r:247483:0]          mpool.c:43   UCX  WARN  object 0x33a4f80 was not returned to mpool ucp_requests
[1652714716.323441] [cn513-17-r:247483:0]          mpool.c:43   UCX  WARN  object 0x33a5140 was not returned to mpool ucp_requests
[1652714716.323446] [cn513-17-r:247483:0]          mpool.c:43   UCX  WARN  object 0x33a5300 was not returned to mpool ucp_requests
[1652714716.323450] [cn513-17-r:247483:0]          mpool.c:43   UCX  WARN  object 0x33a54c0 was not returned to mpool ucp_requests
[1652714716.323456] [cn513-17-r:247483:0]          mpool.c:43   UCX  WARN  object 0x33a5680 was not returned to mpool ucp_requests
[1652714716.323460] [cn513-17-r:247483:0]          mpool.c:43   UCX  WARN  object 0x33a5840 was not returned to mpool ucp_requests
[1652714716.323464] [cn513-17-r:247483:0]          mpool.c:43   UCX  WARN  object 0x33a5a00 was not returned to mpool ucp_requests
[1652714716.323468] [cn513-17-r:247483:0]          mpool.c:43   UCX  WARN  object 0x33a5bc0 was not returned to mpool ucp_requests
[1652714716.323472] [cn513-17-r:247483:0]          mpool.c:43   UCX  WARN  object 0x33a5d80 was not returned to mpool ucp_requests
[1652714716.323476] [cn513-17-r:247483:0]          mpool.c:43   UCX  WARN  object 0x33a5f40 was not returned to mpool ucp_requests
[1652714716.323480] [cn513-17-r:247483:0]          mpool.c:43   UCX  WARN  object 0x33a6100 was not returned to mpool ucp_requests
[1652714716.323484] [cn513-17-r:247483:0]          mpool.c:43   UCX  WARN  object 0x33a62c0 was not returned to mpool ucp_requests
[1652714716.323490] [cn513-17-r:247483:0]          mpool.c:43   UCX  WARN  object 0x33a6480 was not returned to mpool ucp_requests
[1652714716.323494] [cn513-17-r:247483:0]          mpool.c:43   UCX  WARN  object 0x33a6640 was not returned to mpool ucp_requests
[1652714716.323498] [cn513-17-r:247483:0]          mpool.c:43   UCX  WARN  object 0x33a6800 was not returned to mpool ucp_requests
[1652714716.323505] [cn513-17-r:247483:0]          mpool.c:43   UCX  WARN  object 0x33a69c0 was not returned to mpool ucp_requests
[1652714716.323510] [cn513-17-r:247483:0]          mpool.c:43   UCX  WARN  object 0x33a6b80 was not returned to mpool ucp_requests
[1652714716.323515] [cn513-17-r:247483:0]          mpool.c:43   UCX  WARN  object 0x33a6d40 was not returned to mpool ucp_requests
[1652714716.323520] [cn513-17-r:247483:0]          mpool.c:43   UCX  WARN  object 0x33a6f00 was not returned to mpool ucp_requests
[1652714716.323524] [cn513-17-r:247483:0]          mpool.c:43   UCX  WARN  object 0x33a70c0 was not returned to mpool ucp_requests
[1652714716.323530] [cn513-17-r:247483:0]          mpool.c:43   UCX  WARN  object 0x33a7280 was not returned to mpool ucp_requests
[1652714716.323538] [cn513-17-r:247483:0]          mpool.c:43   UCX  WARN  object 0x33a7440 was not returned to mpool ucp_requests
[1652714716.323543] [cn513-17-r:247483:0]          mpool.c:43   UCX  WARN  object 0x33a7600 was not returned to mpool ucp_requests
[1652714716.323552] [cn513-17-r:247483:0]          mpool.c:43   UCX  WARN  object 0x33a77c0 was not returned to mpool ucp_requests
[1652714716.323557] [cn513-17-r:247483:0]          mpool.c:43   UCX  WARN  object 0x33a7980 was not returned to mpool ucp_requests
[1652714716.323562] [cn513-17-r:247483:0]          mpool.c:43   UCX  WARN  object 0x33a7b40 was not returned to mpool ucp_requests
[1652714716.323569] [cn513-17-r:247483:0]          mpool.c:43   UCX  WARN  object 0x33a7d00 was not returned to mpool ucp_requests
[1652714716.323573] [cn513-17-r:247483:0]          mpool.c:43   UCX  WARN  object 0x33a7ec0 was not returned to mpool ucp_requests
[1652714716.323577] [cn513-17-r:247483:0]          mpool.c:43   UCX  WARN  object 0x33a8080 was not returned to mpool ucp_requests
[1652714716.323584] [cn513-17-r:247483:0]          mpool.c:43   UCX  WARN  object 0x33a8240 was not returned to mpool ucp_requests
[1652714716.323591] [cn513-17-r:247483:0]          mpool.c:43   UCX  WARN  object 0x33a8400 was not returned to mpool ucp_requests
[1652714716.323595] [cn513-17-r:247483:0]          mpool.c:43   UCX  WARN  object 0x33a85c0 was not returned to mpool ucp_requests
[1652714716.323599] [cn513-17-r:247483:0]          mpool.c:43   UCX  WARN  object 0x33a8780 was not returned to mpool ucp_requests
[1652714716.323605] [cn513-17-r:247483:0]          mpool.c:43   UCX  WARN  object 0x33a8940 was not returned to mpool ucp_requests
[1652714716.323612] [cn513-17-r:247483:0]          mpool.c:43   UCX  WARN  object 0x33a8b00 was not returned to mpool ucp_requests
[1652714716.323616] [cn513-17-r:247483:0]          mpool.c:43   UCX  WARN  object 0x33a8cc0 was not returned to mpool ucp_requests
[1652714716.323620] [cn513-17-r:247483:0]          mpool.c:43   UCX  WARN  object 0x33a8e80 was not returned to mpool ucp_requests
[1652714716.323626] [cn513-17-r:247483:0]          mpool.c:43   UCX  WARN  object 0x33a9040 was not returned to mpool ucp_requests
[1652714716.323630] [cn513-17-r:247483:0]          mpool.c:43   UCX  WARN  object 0x33a9200 was not returned to mpool ucp_requests
[1652714716.323637] [cn513-17-r:247483:0]          mpool.c:43   UCX  WARN  object 0x33a93c0 was not returned to mpool ucp_requests
[1652714716.323641] [cn513-17-r:247483:0]          mpool.c:43   UCX  WARN  object 0x33a9580 was not returned to mpool ucp_requests
[1652714716.323646] [cn513-17-r:247483:0]          mpool.c:43   UCX  WARN  object 0x33a9740 was not returned to mpool ucp_requests
[1652714716.323651] [cn513-17-r:247483:0]          mpool.c:43   UCX  WARN  object 0x33a9900 was not returned to mpool ucp_requests
[1652714716.323655] [cn513-17-r:247483:0]          mpool.c:43   UCX  WARN  object 0x33a9ac0 was not returned to mpool ucp_requests
[1652714716.323664] [cn513-17-r:247483:0]          mpool.c:43   UCX  WARN  object 0x33a9c80 was not returned to mpool ucp_requests
[1652714716.323672] [cn513-17-r:247483:0]          mpool.c:43   UCX  WARN  object 0x33a9e40 was not returned to mpool ucp_requests
[1652714716.323676] [cn513-17-r:247483:0]          mpool.c:43   UCX  WARN  object 0x33aa000 was not returned to mpool ucp_requests
[1652714716.323680] [cn513-17-r:247483:0]          mpool.c:43   UCX  WARN  object 0x33aa1c0 was not returned to mpool ucp_requests
[1652714716.323685] [cn513-17-r:247483:0]          mpool.c:43   UCX  WARN  object 0x33aa380 was not returned to mpool ucp_requests
[1652714716.323689] [cn513-17-r:247483:0]          mpool.c:43   UCX  WARN  object 0x33aa540 was not returned to mpool ucp_requests
[1652714716.323697] [cn513-17-r:247483:0]          mpool.c:43   UCX  WARN  object 0x33aa700 was not returned to mpool ucp_requests
[1652714716.323702] [cn513-17-r:247483:0]          mpool.c:43   UCX  WARN  object 0x33aa8c0 was not returned to mpool ucp_requests
[1652714716.323707] [cn513-17-r:247483:0]          mpool.c:43   UCX  WARN  object 0x33aaa80 was not returned to mpool ucp_requests
[1652714716.323711] [cn513-17-r:247483:0]          mpool.c:43   UCX  WARN  object 0x33aac40 was not returned to mpool ucp_requests
[1652714716.323717] [cn513-17-r:247483:0]          mpool.c:43   UCX  WARN  object 0x33aae00 was not returned to mpool ucp_requests
[1652714716.323721] [cn513-17-r:247483:0]          mpool.c:43   UCX  WARN  object 0x33aafc0 was not returned to mpool ucp_requests
[1652714716.323725] [cn513-17-r:247483:0]          mpool.c:43   UCX  WARN  object 0x33ab180 was not returned to mpool ucp_requests
[1652714716.323731] [cn513-17-r:247483:0]          mpool.c:43   UCX  WARN  object 0x33ab340 was not returned to mpool ucp_requests
[1652714716.323735] [cn513-17-r:247483:0]          mpool.c:43   UCX  WARN  object 0x33ab500 was not returned to mpool ucp_requests
[1652714716.323739] [cn513-17-r:247483:0]          mpool.c:43   UCX  WARN  object 0x33ab6c0 was not returned to mpool ucp_requests
[1652714716.323745] [cn513-17-r:247483:0]          mpool.c:43   UCX  WARN  object 0x33ab880 was not returned to mpool ucp_requests
[1652714716.323750] [cn513-17-r:247483:0]          mpool.c:43   UCX  WARN  object 0x33aba40 was not returned to mpool ucp_requests
[1652714716.323754] [cn513-17-r:247483:0]          mpool.c:43   UCX  WARN  object 0x33abc00 was not returned to mpool ucp_requests
[1652714716.323760] [cn513-17-r:247483:0]          mpool.c:43   UCX  WARN  object 0x33abdc0 was not returned to mpool ucp_requests
[1652714716.323766] [cn513-17-r:247483:0]          mpool.c:43   UCX  WARN  object 0x33abf80 was not returned to mpool ucp_requests
[1652714716.323770] [cn513-17-r:247483:0]          mpool.c:43   UCX  WARN  object 0x33ac140 was not returned to mpool ucp_requests
[1652714716.323774] [cn513-17-r:247483:0]          mpool.c:43   UCX  WARN  object 0x33ac300 was not returned to mpool ucp_requests
[1652714716.323787] [cn513-17-r:247483:0]          mpool.c:43   UCX  WARN  object 0x33ac4c0 was not returned to mpool ucp_requests
[1652714716.323794] [cn513-17-r:247483:0]          mpool.c:43   UCX  WARN  object 0x33ac680 was not returned to mpool ucp_requests
[1652714716.323804] [cn513-17-r:247483:0]          mpool.c:43   UCX  WARN  object 0x33ac840 was not returned to mpool ucp_requests
[1652714716.323808] [cn513-17-r:247483:0]          mpool.c:43   UCX  WARN  object 0x33aca00 was not returned to mpool ucp_requests
[1652714716.323813] [cn513-17-r:247483:0]          mpool.c:43   UCX  WARN  object 0x33acbc0 was not returned to mpool ucp_requests
[1652714716.323817] [cn513-17-r:247483:0]          mpool.c:43   UCX  WARN  object 0x33acd80 was not returned to mpool ucp_requests
[1652714716.323821] [cn513-17-r:247483:0]          mpool.c:43   UCX  WARN  object 0x33acf40 was not returned to mpool ucp_requests
[1652714716.323825] [cn513-17-r:247483:0]          mpool.c:43   UCX  WARN  object 0x33ad100 was not returned to mpool ucp_requests
[1652714716.323832] [cn513-17-r:247483:0]          mpool.c:43   UCX  WARN  object 0x33ad2c0 was not returned to mpool ucp_requests
[1652714716.323840] [cn513-17-r:247483:0]          mpool.c:43   UCX  WARN  object 0x33ad480 was not returned to mpool ucp_requests
[1652714716.323847] [cn513-17-r:247483:0]          mpool.c:43   UCX  WARN  object 0x33ad640 was not returned to mpool ucp_requests
[1652714716.323852] [cn513-17-r:247483:0]          mpool.c:43   UCX  WARN  object 0x33ad800 was not returned to mpool ucp_requests
[1652714716.323856] [cn513-17-r:247483:0]          mpool.c:43   UCX  WARN  object 0x33ad9c0 was not returned to mpool ucp_requests
[1652714716.323861] [cn513-17-r:247483:0]          mpool.c:43   UCX  WARN  object 0x33adb80 was not returned to mpool ucp_requests
[1652714716.323867] [cn513-17-r:247483:0]          mpool.c:43   UCX  WARN  object 0x33add40 was not returned to mpool ucp_requests
[1652714716.323875] [cn513-17-r:247483:0]          mpool.c:43   UCX  WARN  object 0x33adf00 was not returned to mpool ucp_requests
[1652714716.323882] [cn513-17-r:247483:0]          mpool.c:43   UCX  WARN  object 0x33ae0c0 was not returned to mpool ucp_requests
[1652714716.323887] [cn513-17-r:247483:0]          mpool.c:43   UCX  WARN  object 0x33ae280 was not returned to mpool ucp_requests
[1652714716.323896] [cn513-17-r:247483:0]          mpool.c:43   UCX  WARN  object 0x33ae440 was not returned to mpool ucp_requests
[1652714716.323904] [cn513-17-r:247483:0]          mpool.c:43   UCX  WARN  object 0x33ae600 was not returned to mpool ucp_requests
[1652714716.323909] [cn513-17-r:247483:0]          mpool.c:43   UCX  WARN  object 0x33ae7c0 was not returned to mpool ucp_requests
[1652714716.323915] [cn513-17-r:247483:0]          mpool.c:43   UCX  WARN  object 0x3392940 was not returned to mpool ucp_requests
[1652714716.323919] [cn513-17-r:247483:0]          mpool.c:43   UCX  WARN  object 0x3392b00 was not returned to mpool ucp_requests
[1652714716.323923] [cn513-17-r:247483:0]          mpool.c:43   UCX  WARN  object 0x3392cc0 was not returned to mpool ucp_requests
[1652714716.323933] [cn513-17-r:247483:0]          mpool.c:43   UCX  WARN  object 0x3392e80 was not returned to mpool ucp_requests
[1652714716.323939] [cn513-17-r:247483:0]          mpool.c:43   UCX  WARN  object 0x3393040 was not returned to mpool ucp_requests
[1652714716.323943] [cn513-17-r:247483:0]          mpool.c:43   UCX  WARN  object 0x3393200 was not returned to mpool ucp_requests
[1652714716.323950] [cn513-17-r:247483:0]          mpool.c:43   UCX  WARN  object 0x33933c0 was not returned to mpool ucp_requests
[1652714716.323956] [cn513-17-r:247483:0]          mpool.c:43   UCX  WARN  object 0x3393580 was not returned to mpool ucp_requests
[1652714716.323961] [cn513-17-r:247483:0]          mpool.c:43   UCX  WARN  object 0x3393740 was not returned to mpool ucp_requests
[1652714716.323965] [cn513-17-r:247483:0]          mpool.c:43   UCX  WARN  object 0x3393900 was not returned to mpool ucp_requests
[1652714716.323969] [cn513-17-r:247483:0]          mpool.c:43   UCX  WARN  object 0x3393ac0 was not returned to mpool ucp_requests
[1652714716.323977] [cn513-17-r:247483:0]          mpool.c:43   UCX  WARN  object 0x3393c80 was not returned to mpool ucp_requests
[1652714716.323981] [cn513-17-r:247483:0]          mpool.c:43   UCX  WARN  object 0x3393e40 was not returned to mpool ucp_requests
[1652714716.323986] [cn513-17-r:247483:0]          mpool.c:43   UCX  WARN  object 0x3394000 was not returned to mpool ucp_requests
[1652714716.323990] [cn513-17-r:247483:0]          mpool.c:43   UCX  WARN  object 0x33941c0 was not returned to mpool ucp_requests
[1652714716.323998] [cn513-17-r:247483:0]          mpool.c:43   UCX  WARN  object 0x3394380 was not returned to mpool ucp_requests
[1652714716.324003] [cn513-17-r:247483:0]          mpool.c:43   UCX  WARN  object 0x3394540 was not returned to mpool ucp_requests
[1652714716.324007] [cn513-17-r:247483:0]          mpool.c:43   UCX  WARN  object 0x3394700 was not returned to mpool ucp_requests
[1652714716.324011] [cn513-17-r:247483:0]          mpool.c:43   UCX  WARN  object 0x33948c0 was not returned to mpool ucp_requests
[1652714716.324015] [cn513-17-r:247483:0]          mpool.c:43   UCX  WARN  object 0x3394a80 was not returned to mpool ucp_requests
[1652714716.324021] [cn513-17-r:247483:0]          mpool.c:43   UCX  WARN  object 0x3394c40 was not returned to mpool ucp_requests
[1652714716.324025] [cn513-17-r:247483:0]          mpool.c:43   UCX  WARN  object 0x3394e00 was not returned to mpool ucp_requests
[1652714716.324032] [cn513-17-r:247483:0]          mpool.c:43   UCX  WARN  object 0x3394fc0 was not returned to mpool ucp_requests
[1652714716.324037] [cn513-17-r:247483:0]          mpool.c:43   UCX  WARN  object 0x3395180 was not returned to mpool ucp_requests
[1652714716.324045] [cn513-17-r:247483:0]          mpool.c:43   UCX  WARN  object 0x3395340 was not returned to mpool ucp_requests
[1652714716.324049] [cn513-17-r:247483:0]          mpool.c:43   UCX  WARN  object 0x3395500 was not returned to mpool ucp_requests
[1652714716.324054] [cn513-17-r:247483:0]          mpool.c:43   UCX  WARN  object 0x33956c0 was not returned to mpool ucp_requests
[1652714716.324058] [cn513-17-r:247483:0]          mpool.c:43   UCX  WARN  object 0x3395880 was not returned to mpool ucp_requests
[1652714716.324066] [cn513-17-r:247483:0]          mpool.c:43   UCX  WARN  object 0x3395a40 was not returned to mpool ucp_requests
[1652714716.324073] [cn513-17-r:247483:0]          mpool.c:43   UCX  WARN  object 0x3395c00 was not returned to mpool ucp_requests
[1652714716.324078] [cn513-17-r:247483:0]          mpool.c:43   UCX  WARN  object 0x3395dc0 was not returned to mpool ucp_requests
[1652714716.324082] [cn513-17-r:247483:0]          mpool.c:43   UCX  WARN  object 0x3395f80 was not returned to mpool ucp_requests
[1652714716.324086] [cn513-17-r:247483:0]          mpool.c:43   UCX  WARN  object 0x3396140 was not returned to mpool ucp_requests
[1652714716.324093] [cn513-17-r:247483:0]          mpool.c:43   UCX  WARN  object 0x3396300 was not returned to mpool ucp_requests
[1652714716.324099] [cn513-17-r:247483:0]          mpool.c:43   UCX  WARN  object 0x33964c0 was not returned to mpool ucp_requests
[1652714716.324103] [cn513-17-r:247483:0]          mpool.c:43   UCX  WARN  object 0x3396680 was not returned to mpool ucp_requests
[1652714716.324111] [cn513-17-r:247483:0]          mpool.c:43   UCX  WARN  object 0x3396840 was not returned to mpool ucp_requests
[1652714716.324115] [cn513-17-r:247483:0]          mpool.c:43   UCX  WARN  object 0x3396a00 was not returned to mpool ucp_requests
[1652714716.324119] [cn513-17-r:247483:0]          mpool.c:43   UCX  WARN  object 0x3396bc0 was not returned to mpool ucp_requests
[1652714716.324125] [cn513-17-r:247483:0]          mpool.c:43   UCX  WARN  object 0x3396d80 was not returned to mpool ucp_requests
[1652714716.324129] [cn513-17-r:247483:0]          mpool.c:43   UCX  WARN  object 0x3396f40 was not returned to mpool ucp_requests
[1652714716.324134] [cn513-17-r:247483:0]          mpool.c:43   UCX  WARN  object 0x3397100 was not returned to mpool ucp_requests
[1652714716.324138] [cn513-17-r:247483:0]          mpool.c:43   UCX  WARN  object 0x33972c0 was not returned to mpool ucp_requests
[1652714716.324145] [cn513-17-r:247483:0]          mpool.c:43   UCX  WARN  object 0x3397480 was not returned to mpool ucp_requests
[1652714716.324149] [cn513-17-r:247483:0]          mpool.c:43   UCX  WARN  object 0x3397640 was not returned to mpool ucp_requests
[1652714716.324153] [cn513-17-r:247483:0]          mpool.c:43   UCX  WARN  object 0x3397800 was not returned to mpool ucp_requests
[1652714716.324160] [cn513-17-r:247483:0]          mpool.c:43   UCX  WARN  object 0x33979c0 was not returned to mpool ucp_requests
[1652714716.324165] [cn513-17-r:247483:0]          mpool.c:43   UCX  WARN  object 0x3397b80 was not returned to mpool ucp_requests
[1652714716.324170] [cn513-17-r:247483:0]          mpool.c:43   UCX  WARN  object 0x3397d40 was not returned to mpool ucp_requests
[1652714716.324174] [cn513-17-r:247483:0]          mpool.c:43   UCX  WARN  object 0x3397f00 was not returned to mpool ucp_requests
[1652714716.324181] [cn513-17-r:247483:0]          mpool.c:43   UCX  WARN  object 0x33980c0 was not returned to mpool ucp_requests
[1652714716.324186] [cn513-17-r:247483:0]          mpool.c:43   UCX  WARN  object 0x3398280 was not returned to mpool ucp_requests
[1652714716.324190] [cn513-17-r:247483:0]          mpool.c:43   UCX  WARN  object 0x3398440 was not returned to mpool ucp_requests
[1652714716.324195] [cn513-17-r:247483:0]          mpool.c:43   UCX  WARN  object 0x3398600 was not returned to mpool ucp_requests
[1652714716.324199] [cn513-17-r:247483:0]          mpool.c:43   UCX  WARN  object 0x33987c0 was not returned to mpool ucp_requests
[1652714716.324205] [cn513-17-r:247483:0]          mpool.c:43   UCX  WARN  object 0x3398980 was not returned to mpool ucp_requests
[1652714716.324209] [cn513-17-r:247483:0]          mpool.c:43   UCX  WARN  object 0x3398b40 was not returned to mpool ucp_requests
[1652714716.324213] [cn513-17-r:247483:0]          mpool.c:43   UCX  WARN  object 0x3398d00 was not returned to mpool ucp_requests
[1652714716.324220] [cn513-17-r:247483:0]          mpool.c:43   UCX  WARN  object 0x3398ec0 was not returned to mpool ucp_requests
[1652714716.324228] [cn513-17-r:247483:0]          mpool.c:43   UCX  WARN  object 0x3399080 was not returned to mpool ucp_requests
[1652714716.324233] [cn513-17-r:247483:0]          mpool.c:43   UCX  WARN  object 0x3399240 was not returned to mpool ucp_requests
[1652714716.324241] [cn513-17-r:247483:0]          mpool.c:43   UCX  WARN  object 0x3399400 was not returned to mpool ucp_requests
[1652714716.324245] [cn513-17-r:247483:0]          mpool.c:43   UCX  WARN  object 0x33995c0 was not returned to mpool ucp_requests
[1652714716.324249] [cn513-17-r:247483:0]          mpool.c:43   UCX  WARN  object 0x3399780 was not returned to mpool ucp_requests
[1652714716.324253] [cn513-17-r:247483:0]          mpool.c:43   UCX  WARN  object 0x3399940 was not returned to mpool ucp_requests
[1652714716.324257] [cn513-17-r:247483:0]          mpool.c:43   UCX  WARN  object 0x3399b00 was not returned to mpool ucp_requests
[1652714716.324261] [cn513-17-r:247483:0]          mpool.c:43   UCX  WARN  object 0x3399cc0 was not returned to mpool ucp_requests
[1652714716.324267] [cn513-17-r:247483:0]          mpool.c:43   UCX  WARN  object 0x3399e80 was not returned to mpool ucp_requests
[1652714716.324271] [cn513-17-r:247483:0]          mpool.c:43   UCX  WARN  object 0x339a040 was not returned to mpool ucp_requests
[1652714716.324276] [cn513-17-r:247483:0]          mpool.c:43   UCX  WARN  object 0x339a200 was not returned to mpool ucp_requests
[1652714716.324280] [cn513-17-r:247483:0]          mpool.c:43   UCX  WARN  object 0x339a3c0 was not returned to mpool ucp_requests
[1652714716.324284] [cn513-17-r:247483:0]          mpool.c:43   UCX  WARN  object 0x339a580 was not returned to mpool ucp_requests
[1652714716.324291] [cn513-17-r:247483:0]          mpool.c:43   UCX  WARN  object 0x339a740 was not returned to mpool ucp_requests
[1652714716.324295] [cn513-17-r:247483:0]          mpool.c:43   UCX  WARN  object 0x339a900 was not returned to mpool ucp_requests
[1652714716.324299] [cn513-17-r:247483:0]          mpool.c:43   UCX  WARN  object 0x339aac0 was not returned to mpool ucp_requests
[1652714716.324306] [cn513-17-r:247483:0]          mpool.c:43   UCX  WARN  object 0x339ac80 was not returned to mpool ucp_requests
[1652714716.324310] [cn513-17-r:247483:0]          mpool.c:43   UCX  WARN  object 0x339ae40 was not returned to mpool ucp_requests
[1652714716.324314] [cn513-17-r:247483:0]          mpool.c:43   UCX  WARN  object 0x339b000 was not returned to mpool ucp_requests
[1652714716.324320] [cn513-17-r:247483:0]          mpool.c:43   UCX  WARN  object 0x339b1c0 was not returned to mpool ucp_requests
[1652714716.324324] [cn513-17-r:247483:0]          mpool.c:43   UCX  WARN  object 0x339b380 was not returned to mpool ucp_requests
[1652714716.324330] [cn513-17-r:247483:0]          mpool.c:43   UCX  WARN  object 0x339b540 was not returned to mpool ucp_requests
[1652714716.324334] [cn513-17-r:247483:0]          mpool.c:43   UCX  WARN  object 0x339b700 was not returned to mpool ucp_requests
[1652714716.324338] [cn513-17-r:247483:0]          mpool.c:43   UCX  WARN  object 0x339b8c0 was not returned to mpool ucp_requests
[1652714716.324344] [cn513-17-r:247483:0]          mpool.c:43   UCX  WARN  object 0x339ba80 was not returned to mpool ucp_requests
[1652714716.324348] [cn513-17-r:247483:0]          mpool.c:43   UCX  WARN  object 0x339bc40 was not returned to mpool ucp_requests
[1652714716.324358] [cn513-17-r:247483:0]          mpool.c:43   UCX  WARN  object 0x339be00 was not returned to mpool ucp_requests
[1652714716.324363] [cn513-17-r:247483:0]          mpool.c:43   UCX  WARN  object 0x339bfc0 was not returned to mpool ucp_requests
[1652714716.324370] [cn513-17-r:247483:0]          mpool.c:43   UCX  WARN  object 0x339c180 was not returned to mpool ucp_requests
[1652714716.324374] [cn513-17-r:247483:0]          mpool.c:43   UCX  WARN  object 0x339c340 was not returned to mpool ucp_requests
[1652714716.324378] [cn513-17-r:247483:0]          mpool.c:43   UCX  WARN  object 0x339c500 was not returned to mpool ucp_requests
[1652714716.324384] [cn513-17-r:247483:0]          mpool.c:43   UCX  WARN  object 0x339c6c0 was not returned to mpool ucp_requests
[1652714716.324388] [cn513-17-r:247483:0]          mpool.c:43   UCX  WARN  object 0x339c880 was not returned to mpool ucp_requests
[1652714716.324395] [cn513-17-r:247483:0]          mpool.c:43   UCX  WARN  object 0x339ca40 was not returned to mpool ucp_requests
[1652714716.324399] [cn513-17-r:247483:0]          mpool.c:43   UCX  WARN  object 0x339cc00 was not returned to mpool ucp_requests
[1652714716.324403] [cn513-17-r:247483:0]          mpool.c:43   UCX  WARN  object 0x339cdc0 was not returned to mpool ucp_requests
[1652714716.324409] [cn513-17-r:247483:0]          mpool.c:43   UCX  WARN  object 0x339cf80 was not returned to mpool ucp_requests
[1652714716.324417] [cn513-17-r:247483:0]          mpool.c:43   UCX  WARN  object 0x339d140 was not returned to mpool ucp_requests
[1652714716.324421] [cn513-17-r:247483:0]          mpool.c:43   UCX  WARN  object 0x339d300 was not returned to mpool ucp_requests
[1652714716.324425] [cn513-17-r:247483:0]          mpool.c:43   UCX  WARN  object 0x339d4c0 was not returned to mpool ucp_requests
[1652714716.324430] [cn513-17-r:247483:0]          mpool.c:43   UCX  WARN  object 0x339d680 was not returned to mpool ucp_requests
[1652714716.324438] [cn513-17-r:247483:0]          mpool.c:43   UCX  WARN  object 0x339d840 was not returned to mpool ucp_requests
[1652714716.324443] [cn513-17-r:247483:0]          mpool.c:43   UCX  WARN  object 0x339da00 was not returned to mpool ucp_requests
[1652714716.324448] [cn513-17-r:247483:0]          mpool.c:43   UCX  WARN  object 0x339dbc0 was not returned to mpool ucp_requests
[1652714716.324452] [cn513-17-r:247483:0]          mpool.c:43   UCX  WARN  object 0x339dd80 was not returned to mpool ucp_requests
[1652714716.324460] [cn513-17-r:247483:0]          mpool.c:43   UCX  WARN  object 0x339df40 was not returned to mpool ucp_requests
[1652714716.324466] [cn513-17-r:247483:0]          mpool.c:43   UCX  WARN  object 0x339e100 was not returned to mpool ucp_requests
[1652714716.324470] [cn513-17-r:247483:0]          mpool.c:43   UCX  WARN  object 0x339e2c0 was not returned to mpool ucp_requests
[1652714716.324474] [cn513-17-r:247483:0]          mpool.c:43   UCX  WARN  object 0x339e480 was not returned to mpool ucp_requests
[1652714716.324482] [cn513-17-r:247483:0]          mpool.c:43   UCX  WARN  object 0x339e640 was not returned to mpool ucp_requests
[1652714716.324487] [cn513-17-r:247483:0]          mpool.c:43   UCX  WARN  object 0x339e800 was not returned to mpool ucp_requests
[1652714716.324492] [cn513-17-r:247483:0]          mpool.c:43   UCX  WARN  object 0x339e9c0 was not returned to mpool ucp_requests
[1652714716.324496] [cn513-17-r:247483:0]          mpool.c:43   UCX  WARN  object 0x339eb80 was not returned to mpool ucp_requests
[1652714716.324501] [cn513-17-r:247483:0]          mpool.c:43   UCX  WARN  object 0x339ed40 was not returned to mpool ucp_requests
[1652714716.324507] [cn513-17-r:247483:0]          mpool.c:43   UCX  WARN  object 0x339ef00 was not returned to mpool ucp_requests
[1652714716.324511] [cn513-17-r:247483:0]          mpool.c:43   UCX  WARN  object 0x339f0c0 was not returned to mpool ucp_requests
[1652714716.324517] [cn513-17-r:247483:0]          mpool.c:43   UCX  WARN  object 0x339f280 was not returned to mpool ucp_requests
[1652714716.324521] [cn513-17-r:247483:0]          mpool.c:43   UCX  WARN  object 0x339f440 was not returned to mpool ucp_requests
[1652714716.324525] [cn513-17-r:247483:0]          mpool.c:43   UCX  WARN  object 0x339f600 was not returned to mpool ucp_requests
[1652714716.324531] [cn513-17-r:247483:0]          mpool.c:43   UCX  WARN  object 0x339f7c0 was not returned to mpool ucp_requests
[1652714716.324542] [cn513-17-r:247483:0]          mpool.c:43   UCX  WARN  object 0x339f980 was not returned to mpool ucp_requests
[1652714716.324548] [cn513-17-r:247483:0]          mpool.c:43   UCX  WARN  object 0x339fb40 was not returned to mpool ucp_requests
[1652714716.324553] [cn513-17-r:247483:0]          mpool.c:43   UCX  WARN  object 0x339fd00 was not returned to mpool ucp_requests
[1652714716.324557] [cn513-17-r:247483:0]          mpool.c:43   UCX  WARN  object 0x339fec0 was not returned to mpool ucp_requests
[1652714716.324561] [cn513-17-r:247483:0]          mpool.c:43   UCX  WARN  object 0x33a0080 was not returned to mpool ucp_requests
[1652714716.324570] [cn513-17-r:247483:0]          mpool.c:43   UCX  WARN  object 0x33a0240 was not returned to mpool ucp_requests
[1652714716.324575] [cn513-17-r:247483:0]          mpool.c:43   UCX  WARN  object 0x33a0400 was not returned to mpool ucp_requests
[1652714716.324579] [cn513-17-r:247483:0]          mpool.c:43   UCX  WARN  object 0x33a05c0 was not returned to mpool ucp_requests
[1652714716.324583] [cn513-17-r:247483:0]          mpool.c:43   UCX  WARN  object 0x33a0780 was not returned to mpool ucp_requests
[1652714716.324592] [cn513-17-r:247483:0]          mpool.c:43   UCX  WARN  object 0x33848c0 was not returned to mpool ucp_requests
[1652714716.324598] [cn513-17-r:247483:0]          mpool.c:43   UCX  WARN  object 0x3384a80 was not returned to mpool ucp_requests
[1652714716.324602] [cn513-17-r:247483:0]          mpool.c:43   UCX  WARN  object 0x3384c40 was not returned to mpool ucp_requests
[1652714716.324606] [cn513-17-r:247483:0]          mpool.c:43   UCX  WARN  object 0x3384e00 was not returned to mpool ucp_requests
[1652714716.324610] [cn513-17-r:247483:0]          mpool.c:43   UCX  WARN  object 0x3384fc0 was not returned to mpool ucp_requests
[1652714716.324618] [cn513-17-r:247483:0]          mpool.c:43   UCX  WARN  object 0x3385180 was not returned to mpool ucp_requests
[1652714716.324624] [cn513-17-r:247483:0]          mpool.c:43   UCX  WARN  object 0x3385340 was not returned to mpool ucp_requests
[1652714716.324628] [cn513-17-r:247483:0]          mpool.c:43   UCX  WARN  object 0x3385500 was not returned to mpool ucp_requests
[1652714716.324636] [cn513-17-r:247483:0]          mpool.c:43   UCX  WARN  object 0x33856c0 was not returned to mpool ucp_requests
[1652714716.324642] [cn513-17-r:247483:0]          mpool.c:43   UCX  WARN  object 0x3385880 was not returned to mpool ucp_requests
[1652714716.324647] [cn513-17-r:247483:0]          mpool.c:43   UCX  WARN  object 0x3385a40 was not returned to mpool ucp_requests
[1652714716.324651] [cn513-17-r:247483:0]          mpool.c:43   UCX  WARN  object 0x3385c00 was not returned to mpool ucp_requests
[1652714716.324655] [cn513-17-r:247483:0]          mpool.c:43   UCX  WARN  object 0x3385dc0 was not returned to mpool ucp_requests
[1652714716.324663] [cn513-17-r:247483:0]          mpool.c:43   UCX  WARN  object 0x3385f80 was not returned to mpool ucp_requests
[1652714716.324668] [cn513-17-r:247483:0]          mpool.c:43   UCX  WARN  object 0x3386140 was not returned to mpool ucp_requests
[1652714716.324673] [cn513-17-r:247483:0]          mpool.c:43   UCX  WARN  object 0x3386300 was not returned to mpool ucp_requests
[1652714716.324681] [cn513-17-r:247483:0]          mpool.c:43   UCX  WARN  object 0x33864c0 was not returned to mpool ucp_requests
[1652714716.324686] [cn513-17-r:247483:0]          mpool.c:43   UCX  WARN  object 0x3386680 was not returned to mpool ucp_requests
[1652714716.324691] [cn513-17-r:247483:0]          mpool.c:43   UCX  WARN  object 0x3386840 was not returned to mpool ucp_requests
[1652714716.324695] [cn513-17-r:247483:0]          mpool.c:43   UCX  WARN  object 0x3386a00 was not returned to mpool ucp_requests
[1652714716.324699] [cn513-17-r:247483:0]          mpool.c:43   UCX  WARN  object 0x3386bc0 was not returned to mpool ucp_requests
[1652714716.324705] [cn513-17-r:247483:0]          mpool.c:43   UCX  WARN  object 0x3386d80 was not returned to mpool ucp_requests
[1652714716.324709] [cn513-17-r:247483:0]          mpool.c:43   UCX  WARN  object 0x3386f40 was not returned to mpool ucp_requests
[1652714716.324717] [cn513-17-r:247483:0]          mpool.c:43   UCX  WARN  object 0x3387100 was not returned to mpool ucp_requests
[1652714716.324725] [cn513-17-r:247483:0]          mpool.c:43   UCX  WARN  object 0x33872c0 was not returned to mpool ucp_requests
[1652714716.324729] [cn513-17-r:247483:0]          mpool.c:43   UCX  WARN  object 0x3387480 was not returned to mpool ucp_requests
[1652714716.324733] [cn513-17-r:247483:0]          mpool.c:43   UCX  WARN  object 0x3387640 was not returned to mpool ucp_requests
[1652714716.324741] [cn513-17-r:247483:0]          mpool.c:43   UCX  WARN  object 0x3387800 was not returned to mpool ucp_requests
[1652714716.324746] [cn513-17-r:247483:0]          mpool.c:43   UCX  WARN  object 0x33879c0 was not returned to mpool ucp_requests
[1652714716.324751] [cn513-17-r:247483:0]          mpool.c:43   UCX  WARN  object 0x3387b80 was not returned to mpool ucp_requests
[1652714716.324755] [cn513-17-r:247483:0]          mpool.c:43   UCX  WARN  object 0x3387d40 was not returned to mpool ucp_requests
[1652714716.324759] [cn513-17-r:247483:0]          mpool.c:43   UCX  WARN  object 0x3387f00 was not returned to mpool ucp_requests
[1652714716.324764] [cn513-17-r:247483:0]          mpool.c:43   UCX  WARN  object 0x33880c0 was not returned to mpool ucp_requests
[1652714716.324770] [cn513-17-r:247483:0]          mpool.c:43   UCX  WARN  object 0x3388280 was not returned to mpool ucp_requests
[1652714716.324774] [cn513-17-r:247483:0]          mpool.c:43   UCX  WARN  object 0x3388440 was not returned to mpool ucp_requests
[1652714716.324778] [cn513-17-r:247483:0]          mpool.c:43   UCX  WARN  object 0x3388600 was not returned to mpool ucp_requests
[1652714716.324791] [cn513-17-r:247483:0]          mpool.c:43   UCX  WARN  object 0x33887c0 was not returned to mpool ucp_requests
[1652714716.324795] [cn513-17-r:247483:0]          mpool.c:43   UCX  WARN  object 0x3388980 was not returned to mpool ucp_requests
[1652714716.324801] [cn513-17-r:247483:0]          mpool.c:43   UCX  WARN  object 0x3388b40 was not returned to mpool ucp_requests
[1652714716.324805] [cn513-17-r:247483:0]          mpool.c:43   UCX  WARN  object 0x3388d00 was not returned to mpool ucp_requests
[1652714716.324809] [cn513-17-r:247483:0]          mpool.c:43   UCX  WARN  object 0x3388ec0 was not returned to mpool ucp_requests
[1652714716.324815] [cn513-17-r:247483:0]          mpool.c:43   UCX  WARN  object 0x3389080 was not returned to mpool ucp_requests
[1652714716.324819] [cn513-17-r:247483:0]          mpool.c:43   UCX  WARN  object 0x3389240 was not returned to mpool ucp_requests
[1652714716.324823] [cn513-17-r:247483:0]          mpool.c:43   UCX  WARN  object 0x3389400 was not returned to mpool ucp_requests
[1652714716.324829] [cn513-17-r:247483:0]          mpool.c:43   UCX  WARN  object 0x33895c0 was not returned to mpool ucp_requests
[1652714716.324840] [cn513-17-r:247483:0]          mpool.c:43   UCX  WARN  object 0x3389780 was not returned to mpool ucp_requests
[1652714716.324846] [cn513-17-r:247483:0]          mpool.c:43   UCX  WARN  object 0x3389940 was not returned to mpool ucp_requests
[1652714716.324851] [cn513-17-r:247483:0]          mpool.c:43   UCX  WARN  object 0x3389b00 was not returned to mpool ucp_requests
[1652714716.324856] [cn513-17-r:247483:0]          mpool.c:43   UCX  WARN  object 0x3389cc0 was not returned to mpool ucp_requests
[1652714716.324861] [cn513-17-r:247483:0]          mpool.c:43   UCX  WARN  object 0x3389e80 was not returned to mpool ucp_requests
[1652714716.324866] [cn513-17-r:247483:0]          mpool.c:43   UCX  WARN  object 0x338a040 was not returned to mpool ucp_requests
[1652714716.324870] [cn513-17-r:247483:0]          mpool.c:43   UCX  WARN  object 0x338a200 was not returned to mpool ucp_requests
[1652714716.324876] [cn513-17-r:247483:0]          mpool.c:43   UCX  WARN  object 0x338a3c0 was not returned to mpool ucp_requests
[1652714716.324880] [cn513-17-r:247483:0]          mpool.c:43   UCX  WARN  object 0x338a580 was not returned to mpool ucp_requests
[1652714716.324889] [cn513-17-r:247483:0]          mpool.c:43   UCX  WARN  object 0x338a740 was not returned to mpool ucp_requests
[1652714716.324894] [cn513-17-r:247483:0]          mpool.c:43   UCX  WARN  object 0x338a900 was not returned to mpool ucp_requests
[1652714716.324898] [cn513-17-r:247483:0]          mpool.c:43   UCX  WARN  object 0x338aac0 was not returned to mpool ucp_requests
[1652714716.324905] [cn513-17-r:247483:0]          mpool.c:43   UCX  WARN  object 0x338ac80 was not returned to mpool ucp_requests
[1652714716.324913] [cn513-17-r:247483:0]          mpool.c:43   UCX  WARN  object 0x338ae40 was not returned to mpool ucp_requests
[1652714716.324917] [cn513-17-r:247483:0]          mpool.c:43   UCX  WARN  object 0x338b000 was not returned to mpool ucp_requests
[1652714716.324922] [cn513-17-r:247483:0]          mpool.c:43   UCX  WARN  object 0x338b1c0 was not returned to mpool ucp_requests
[1652714716.324928] [cn513-17-r:247483:0]          mpool.c:43   UCX  WARN  object 0x338b380 was not returned to mpool ucp_requests
[1652714716.324940] [cn513-17-r:247483:0]          mpool.c:43   UCX  WARN  object 0x338b540 was not returned to mpool ucp_requests
[1652714716.324945] [cn513-17-r:247483:0]          mpool.c:43   UCX  WARN  object 0x338b700 was not returned to mpool ucp_requests
[1652714716.324950] [cn513-17-r:247483:0]          mpool.c:43   UCX  WARN  object 0x338b8c0 was not returned to mpool ucp_requests
[1652714716.324954] [cn513-17-r:247483:0]          mpool.c:43   UCX  WARN  object 0x338ba80 was not returned to mpool ucp_requests
[1652714716.324958] [cn513-17-r:247483:0]          mpool.c:43   UCX  WARN  object 0x338bc40 was not returned to mpool ucp_requests
[1652714716.324966] [cn513-17-r:247483:0]          mpool.c:43   UCX  WARN  object 0x338be00 was not returned to mpool ucp_requests
[1652714716.324972] [cn513-17-r:247483:0]          mpool.c:43   UCX  WARN  object 0x338bfc0 was not returned to mpool ucp_requests
[1652714716.324976] [cn513-17-r:247483:0]          mpool.c:43   UCX  WARN  object 0x338c180 was not returned to mpool ucp_requests
[1652714716.324980] [cn513-17-r:247483:0]          mpool.c:43   UCX  WARN  object 0x338c340 was not returned to mpool ucp_requests
[1652714716.324989] [cn513-17-r:247483:0]          mpool.c:43   UCX  WARN  object 0x338c500 was not returned to mpool ucp_requests
[1652714716.324994] [cn513-17-r:247483:0]          mpool.c:43   UCX  WARN  object 0x338c6c0 was not returned to mpool ucp_requests
[1652714716.324999] [cn513-17-r:247483:0]          mpool.c:43   UCX  WARN  object 0x338c880 was not returned to mpool ucp_requests
[1652714716.325003] [cn513-17-r:247483:0]          mpool.c:43   UCX  WARN  object 0x338ca40 was not returned to mpool ucp_requests
[1652714716.325007] [cn513-17-r:247483:0]          mpool.c:43   UCX  WARN  object 0x338cc00 was not returned to mpool ucp_requests
[1652714716.325013] [cn513-17-r:247483:0]          mpool.c:43   UCX  WARN  object 0x338cdc0 was not returned to mpool ucp_requests
[1652714716.325018] [cn513-17-r:247483:0]          mpool.c:43   UCX  WARN  object 0x338cf80 was not returned to mpool ucp_requests
[1652714716.325022] [cn513-17-r:247483:0]          mpool.c:43   UCX  WARN  object 0x338d140 was not returned to mpool ucp_requests
[1652714716.325027] [cn513-17-r:247483:0]          mpool.c:43   UCX  WARN  object 0x338d300 was not returned to mpool ucp_requests
[1652714716.325034] [cn513-17-r:247483:0]          mpool.c:43   UCX  WARN  object 0x338d4c0 was not returned to mpool ucp_requests
[1652714716.325039] [cn513-17-r:247483:0]          mpool.c:43   UCX  WARN  object 0x338d680 was not returned to mpool ucp_requests
[1652714716.325043] [cn513-17-r:247483:0]          mpool.c:43   UCX  WARN  object 0x338d840 was not returned to mpool ucp_requests
[1652714716.325047] [cn513-17-r:247483:0]          mpool.c:43   UCX  WARN  object 0x338da00 was not returned to mpool ucp_requests
[1652714716.325056] [cn513-17-r:247483:0]          mpool.c:43   UCX  WARN  object 0x338dbc0 was not returned to mpool ucp_requests
[1652714716.325065] [cn513-17-r:247483:0]          mpool.c:43   UCX  WARN  object 0x338dd80 was not returned to mpool ucp_requests
[1652714716.325070] [cn513-17-r:247483:0]          mpool.c:43   UCX  WARN  object 0x338df40 was not returned to mpool ucp_requests
[1652714716.325078] [cn513-17-r:247483:0]          mpool.c:43   UCX  WARN  object 0x338e100 was not returned to mpool ucp_requests
[1652714716.325082] [cn513-17-r:247483:0]          mpool.c:43   UCX  WARN  object 0x338e2c0 was not returned to mpool ucp_requests
[1652714716.325086] [cn513-17-r:247483:0]          mpool.c:43   UCX  WARN  object 0x338e480 was not returned to mpool ucp_requests
[1652714716.325093] [cn513-17-r:247483:0]          mpool.c:43   UCX  WARN  object 0x338e640 was not returned to mpool ucp_requests
[1652714716.325102] [cn513-17-r:247483:0]          mpool.c:43   UCX  WARN  object 0x338e800 was not returned to mpool ucp_requests
[1652714716.325108] [cn513-17-r:247483:0]          mpool.c:43   UCX  WARN  object 0x338e9c0 was not returned to mpool ucp_requests
[1652714716.325115] [cn513-17-r:247483:0]          mpool.c:43   UCX  WARN  object 0x338eb80 was not returned to mpool ucp_requests
[1652714716.325119] [cn513-17-r:247483:0]          mpool.c:43   UCX  WARN  object 0x338ed40 was not returned to mpool ucp_requests
[1652714716.325123] [cn513-17-r:247483:0]          mpool.c:43   UCX  WARN  object 0x338ef00 was not returned to mpool ucp_requests
[1652714716.325128] [cn513-17-r:247483:0]          mpool.c:43   UCX  WARN  object 0x338f0c0 was not returned to mpool ucp_requests
[1652714716.325132] [cn513-17-r:247483:0]          mpool.c:43   UCX  WARN  object 0x338f280 was not returned to mpool ucp_requests
[1652714716.325138] [cn513-17-r:247483:0]          mpool.c:43   UCX  WARN  object 0x338f440 was not returned to mpool ucp_requests
[1652714716.325142] [cn513-17-r:247483:0]          mpool.c:43   UCX  WARN  object 0x338f600 was not returned to mpool ucp_requests
[1652714716.325146] [cn513-17-r:247483:0]          mpool.c:43   UCX  WARN  object 0x338f7c0 was not returned to mpool ucp_requests
[1652714716.325150] [cn513-17-r:247483:0]          mpool.c:43   UCX  WARN  object 0x338f980 was not returned to mpool ucp_requests
[1652714716.325155] [cn513-17-r:247483:0]          mpool.c:43   UCX  WARN  object 0x338fb40 was not returned to mpool ucp_requests
[1652714716.325159] [cn513-17-r:247483:0]          mpool.c:43   UCX  WARN  object 0x338fd00 was not returned to mpool ucp_requests
[1652714716.325163] [cn513-17-r:247483:0]          mpool.c:43   UCX  WARN  object 0x338fec0 was not returned to mpool ucp_requests
[1652714716.325170] [cn513-17-r:247483:0]          mpool.c:43   UCX  WARN  object 0x3390080 was not returned to mpool ucp_requests
[1652714716.325179] [cn513-17-r:247483:0]          mpool.c:43   UCX  WARN  object 0x3390240 was not returned to mpool ucp_requests
[1652714716.325184] [cn513-17-r:247483:0]          mpool.c:43   UCX  WARN  object 0x3390400 was not returned to mpool ucp_requests
[1652714716.325189] [cn513-17-r:247483:0]          mpool.c:43   UCX  WARN  object 0x33905c0 was not returned to mpool ucp_requests
[1652714716.325193] [cn513-17-r:247483:0]          mpool.c:43   UCX  WARN  object 0x3390780 was not returned to mpool ucp_requests
[1652714716.325197] [cn513-17-r:247483:0]          mpool.c:43   UCX  WARN  object 0x3390940 was not returned to mpool ucp_requests
[1652714716.325204] [cn513-17-r:247483:0]          mpool.c:43   UCX  WARN  object 0x3390b00 was not returned to mpool ucp_requests
[1652714716.325209] [cn513-17-r:247483:0]          mpool.c:43   UCX  WARN  object 0x3390cc0 was not returned to mpool ucp_requests
[1652714716.325213] [cn513-17-r:247483:0]          mpool.c:43   UCX  WARN  object 0x3390e80 was not returned to mpool ucp_requests
[1652714716.325222] [cn513-17-r:247483:0]          mpool.c:43   UCX  WARN  object 0x3391040 was not returned to mpool ucp_requests
[1652714716.325226] [cn513-17-r:247483:0]          mpool.c:43   UCX  WARN  object 0x3391200 was not returned to mpool ucp_requests
[1652714716.325230] [cn513-17-r:247483:0]          mpool.c:43   UCX  WARN  object 0x33913c0 was not returned to mpool ucp_requests
[1652714716.325236] [cn513-17-r:247483:0]          mpool.c:43   UCX  WARN  object 0x3391580 was not returned to mpool ucp_requests
[1652714716.325240] [cn513-17-r:247483:0]          mpool.c:43   UCX  WARN  object 0x3391740 was not returned to mpool ucp_requests
[1652714716.325247] [cn513-17-r:247483:0]          mpool.c:43   UCX  WARN  object 0x3391900 was not returned to mpool ucp_requests
[1652714716.325252] [cn513-17-r:247483:0]          mpool.c:43   UCX  WARN  object 0x3391ac0 was not returned to mpool ucp_requests
[1652714716.325256] [cn513-17-r:247483:0]          mpool.c:43   UCX  WARN  object 0x3391c80 was not returned to mpool ucp_requests
[1652714716.325263] [cn513-17-r:247483:0]          mpool.c:43   UCX  WARN  object 0x3391e40 was not returned to mpool ucp_requests
[1652714716.325268] [cn513-17-r:247483:0]          mpool.c:43   UCX  WARN  object 0x3392000 was not returned to mpool ucp_requests
[1652714716.325273] [cn513-17-r:247483:0]          mpool.c:43   UCX  WARN  object 0x33921c0 was not returned to mpool ucp_requests
[1652714716.325277] [cn513-17-r:247483:0]          mpool.c:43   UCX  WARN  object 0x3392380 was not returned to mpool ucp_requests
[1652714716.325282] [cn513-17-r:247483:0]          mpool.c:43   UCX  WARN  object 0x3392540 was not returned to mpool ucp_requests
[1652714716.325286] [cn513-17-r:247483:0]          mpool.c:43   UCX  WARN  object 0x3392700 was not returned to mpool ucp_requests
[1652714716.325291] [cn513-17-r:247483:0]          mpool.c:43   UCX  WARN  object 0x3376880 was not returned to mpool ucp_requests
[1652714716.325297] [cn513-17-r:247483:0]          mpool.c:43   UCX  WARN  object 0x3376a40 was not returned to mpool ucp_requests
[1652714716.325305] [cn513-17-r:247483:0]          mpool.c:43   UCX  WARN  object 0x3376c00 was not returned to mpool ucp_requests
[1652714716.325312] [cn513-17-r:247483:0]          mpool.c:43   UCX  WARN  object 0x3376dc0 was not returned to mpool ucp_requests
[1652714716.325317] [cn513-17-r:247483:0]          mpool.c:43   UCX  WARN  object 0x3376f80 was not returned to mpool ucp_requests
[1652714716.325322] [cn513-17-r:247483:0]          mpool.c:43   UCX  WARN  object 0x3377140 was not returned to mpool ucp_requests
[1652714716.325326] [cn513-17-r:247483:0]          mpool.c:43   UCX  WARN  object 0x3377300 was not returned to mpool ucp_requests
[1652714716.325330] [cn513-17-r:247483:0]          mpool.c:43   UCX  WARN  object 0x33774c0 was not returned to mpool ucp_requests
[1652714716.325336] [cn513-17-r:247483:0]          mpool.c:43   UCX  WARN  object 0x3377680 was not returned to mpool ucp_requests
[1652714716.325344] [cn513-17-r:247483:0]          mpool.c:43   UCX  WARN  object 0x3377840 was not returned to mpool ucp_requests
[1652714716.325348] [cn513-17-r:247483:0]          mpool.c:43   UCX  WARN  object 0x3377a00 was not returned to mpool ucp_requests
[1652714716.325353] [cn513-17-r:247483:0]          mpool.c:43   UCX  WARN  object 0x3377bc0 was not returned to mpool ucp_requests
[1652714716.325357] [cn513-17-r:247483:0]          mpool.c:43   UCX  WARN  object 0x3377d80 was not returned to mpool ucp_requests
[1652714716.325361] [cn513-17-r:247483:0]          mpool.c:43   UCX  WARN  object 0x3377f40 was not returned to mpool ucp_requests
[1652714716.325368] [cn513-17-r:247483:0]          mpool.c:43   UCX  WARN  object 0x3378100 was not returned to mpool ucp_requests
[1652714716.325372] [cn513-17-r:247483:0]          mpool.c:43   UCX  WARN  object 0x33782c0 was not returned to mpool ucp_requests
[1652714716.325378] [cn513-17-r:247483:0]          mpool.c:43   UCX  WARN  object 0x3378480 was not returned to mpool ucp_requests
[1652714716.325382] [cn513-17-r:247483:0]          mpool.c:43   UCX  WARN  object 0x3378640 was not returned to mpool ucp_requests
[1652714716.325386] [cn513-17-r:247483:0]          mpool.c:43   UCX  WARN  object 0x3378800 was not returned to mpool ucp_requests
[1652714716.325394] [cn513-17-r:247483:0]          mpool.c:43   UCX  WARN  object 0x33789c0 was not returned to mpool ucp_requests
[1652714716.325399] [cn513-17-r:247483:0]          mpool.c:43   UCX  WARN  object 0x3378b80 was not returned to mpool ucp_requests
[1652714716.325403] [cn513-17-r:247483:0]          mpool.c:43   UCX  WARN  object 0x3378d40 was not returned to mpool ucp_requests
[1652714716.325407] [cn513-17-r:247483:0]          mpool.c:43   UCX  WARN  object 0x3378f00 was not returned to mpool ucp_requests
[1652714716.325414] [cn513-17-r:247483:0]          mpool.c:43   UCX  WARN  object 0x33790c0 was not returned to mpool ucp_requests
[1652714716.325418] [cn513-17-r:247483:0]          mpool.c:43   UCX  WARN  object 0x3379280 was not returned to mpool ucp_requests
[1652714716.325422] [cn513-17-r:247483:0]          mpool.c:43   UCX  WARN  object 0x3379440 was not returned to mpool ucp_requests
[1652714716.325428] [cn513-17-r:247483:0]          mpool.c:43   UCX  WARN  object 0x3379600 was not returned to mpool ucp_requests
[1652714716.325432] [cn513-17-r:247483:0]          mpool.c:43   UCX  WARN  object 0x33797c0 was not returned to mpool ucp_requests
[1652714716.325439] [cn513-17-r:247483:0]          mpool.c:43   UCX  WARN  object 0x3379980 was not returned to mpool ucp_requests
[1652714716.325443] [cn513-17-r:247483:0]          mpool.c:43   UCX  WARN  object 0x3379b40 was not returned to mpool ucp_requests
[1652714716.325447] [cn513-17-r:247483:0]          mpool.c:43   UCX  WARN  object 0x3379d00 was not returned to mpool ucp_requests
[1652714716.325453] [cn513-17-r:247483:0]          mpool.c:43   UCX  WARN  object 0x3379ec0 was not returned to mpool ucp_requests
[1652714716.325457] [cn513-17-r:247483:0]          mpool.c:43   UCX  WARN  object 0x337a080 was not returned to mpool ucp_requests
[1652714716.325462] [cn513-17-r:247483:0]          mpool.c:43   UCX  WARN  object 0x337a240 was not returned to mpool ucp_requests
[1652714716.325467] [cn513-17-r:247483:0]          mpool.c:43   UCX  WARN  object 0x337a400 was not returned to mpool ucp_requests
[1652714716.325476] [cn513-17-r:247483:0]          mpool.c:43   UCX  WARN  object 0x337a5c0 was not returned to mpool ucp_requests
[1652714716.325480] [cn513-17-r:247483:0]          mpool.c:43   UCX  WARN  object 0x337a780 was not returned to mpool ucp_requests
[1652714716.325485] [cn513-17-r:247483:0]          mpool.c:43   UCX  WARN  object 0x337a940 was not returned to mpool ucp_requests
[1652714716.325489] [cn513-17-r:247483:0]          mpool.c:43   UCX  WARN  object 0x337ab00 was not returned to mpool ucp_requests
[1652714716.325495] [cn513-17-r:247483:0]          mpool.c:43   UCX  WARN  object 0x337acc0 was not returned to mpool ucp_requests
[1652714716.325499] [cn513-17-r:247483:0]          mpool.c:43   UCX  WARN  object 0x337ae80 was not returned to mpool ucp_requests
[1652714716.325504] [cn513-17-r:247483:0]          mpool.c:43   UCX  WARN  object 0x337b040 was not returned to mpool ucp_requests
[1652714716.325510] [cn513-17-r:247483:0]          mpool.c:43   UCX  WARN  object 0x337b200 was not returned to mpool ucp_requests
[1652714716.325514] [cn513-17-r:247483:0]          mpool.c:43   UCX  WARN  object 0x337b3c0 was not returned to mpool ucp_requests
[1652714716.325520] [cn513-17-r:247483:0]          mpool.c:43   UCX  WARN  object 0x337b580 was not returned to mpool ucp_requests
[1652714716.325524] [cn513-17-r:247483:0]          mpool.c:43   UCX  WARN  object 0x337b740 was not returned to mpool ucp_requests
[1652714716.325528] [cn513-17-r:247483:0]          mpool.c:43   UCX  WARN  object 0x337b900 was not returned to mpool ucp_requests
[1652714716.325534] [cn513-17-r:247483:0]          mpool.c:43   UCX  WARN  object 0x337bac0 was not returned to mpool ucp_requests
[1652714716.325538] [cn513-17-r:247483:0]          mpool.c:43   UCX  WARN  object 0x337bc80 was not returned to mpool ucp_requests
[1652714716.325543] [cn513-17-r:247483:0]          mpool.c:43   UCX  WARN  object 0x337be40 was not returned to mpool ucp_requests
[1652714716.325547] [cn513-17-r:247483:0]          mpool.c:43   UCX  WARN  object 0x337c000 was not returned to mpool ucp_requests
[1652714716.325552] [cn513-17-r:247483:0]          mpool.c:43   UCX  WARN  object 0x337c1c0 was not returned to mpool ucp_requests
[1652714716.325558] [cn513-17-r:247483:0]          mpool.c:43   UCX  WARN  object 0x337c380 was not returned to mpool ucp_requests
[1652714716.325565] [cn513-17-r:247483:0]          mpool.c:43   UCX  WARN  object 0x337c540 was not returned to mpool ucp_requests
[1652714716.325569] [cn513-17-r:247483:0]          mpool.c:43   UCX  WARN  object 0x337c700 was not returned to mpool ucp_requests
[1652714716.325573] [cn513-17-r:247483:0]          mpool.c:43   UCX  WARN  object 0x337c8c0 was not returned to mpool ucp_requests
[1652714716.335207] [cn513-14-r:40892:0]          mpool.c:43   UCX  WARN  object 0x3951200 was not returned to mpool ucp_requests
[1652714716.335231] [cn513-14-r:40892:0]          mpool.c:43   UCX  WARN  object 0x39513c0 was not returned to mpool ucp_requests
[1652714716.335236] [cn513-14-r:40892:0]          mpool.c:43   UCX  WARN  object 0x3951580 was not returned to mpool ucp_requests
[1652714716.335241] [cn513-14-r:40892:0]          mpool.c:43   UCX  WARN  object 0x3951740 was not returned to mpool ucp_requests
[1652714716.335245] [cn513-14-r:40892:0]          mpool.c:43   UCX  WARN  object 0x3951900 was not returned to mpool ucp_requests
[1652714716.335249] [cn513-14-r:40892:0]          mpool.c:43   UCX  WARN  object 0x3951ac0 was not returned to mpool ucp_requests
[1652714716.335300] [cn513-14-r:40892:0]          mpool.c:43   UCX  WARN  object 0x3951c80 was not returned to mpool ucp_requests
[1652714716.325579] [cn513-17-r:247483:0]          mpool.c:43   UCX  WARN  object 0x337ca80 was not returned to mpool ucp_requests
[1652714716.325586] [cn513-17-r:247483:0]          mpool.c:43   UCX  WARN  object 0x337cc40 was not returned to mpool ucp_requests
[1652714716.325590] [cn513-17-r:247483:0]          mpool.c:43   UCX  WARN  object 0x337ce00 was not returned to mpool ucp_requests
[1652714716.325594] [cn513-17-r:247483:0]          mpool.c:43   UCX  WARN  object 0x337cfc0 was not returned to mpool ucp_requests
[1652714716.325601] [cn513-17-r:247483:0]          mpool.c:43   UCX  WARN  object 0x337d180 was not returned to mpool ucp_requests
[1652714716.325605] [cn513-17-r:247483:0]          mpool.c:43   UCX  WARN  object 0x337d340 was not returned to mpool ucp_requests
[1652714716.325610] [cn513-17-r:247483:0]          mpool.c:43   UCX  WARN  object 0x337d500 was not returned to mpool ucp_requests
[1652714716.325614] [cn513-17-r:247483:0]          mpool.c:43   UCX  WARN  object 0x337d6c0 was not returned to mpool ucp_requests
[1652714716.325618] [cn513-17-r:247483:0]          mpool.c:43   UCX  WARN  object 0x337d880 was not returned to mpool ucp_requests
[1652714716.335305] [cn513-14-r:40892:0]          mpool.c:43   UCX  WARN  object 0x3951e40 was not returned to mpool ucp_requests
[1652714716.335310] [cn513-14-r:40892:0]          mpool.c:43   UCX  WARN  object 0x3952000 was not returned to mpool ucp_requests
[1652714716.335314] [cn513-14-r:40892:0]          mpool.c:43   UCX  WARN  object 0x39521c0 was not returned to mpool ucp_requests
[1652714716.335318] [cn513-14-r:40892:0]          mpool.c:43   UCX  WARN  object 0x3952380 was not returned to mpool ucp_requests
[1652714716.335321] [cn513-14-r:40892:0]          mpool.c:43   UCX  WARN  object 0x3952540 was not returned to mpool ucp_requests
[1652714716.335325] [cn513-14-r:40892:0]          mpool.c:43   UCX  WARN  object 0x3952700 was not returned to mpool ucp_requests
[1652714716.335332] [cn513-14-r:40892:0]          mpool.c:43   UCX  WARN  object 0x39528c0 was not returned to mpool ucp_requests
[1652714716.335336] [cn513-14-r:40892:0]          mpool.c:43   UCX  WARN  object 0x3952a80 was not returned to mpool ucp_requests
[1652714716.335339] [cn513-14-r:40892:0]          mpool.c:43   UCX  WARN  object 0x3952c40 was not returned to mpool ucp_requests
[1652714716.335343] [cn513-14-r:40892:0]          mpool.c:43   UCX  WARN  object 0x3952e00 was not returned to mpool ucp_requests
[1652714716.335346] [cn513-14-r:40892:0]          mpool.c:43   UCX  WARN  object 0x3952fc0 was not returned to mpool ucp_requests
[1652714716.325624] [cn513-17-r:247483:0]          mpool.c:43   UCX  WARN  object 0x337da40 was not returned to mpool ucp_requests
[1652714716.325631] [cn513-17-r:247483:0]          mpool.c:43   UCX  WARN  object 0x337dc00 was not returned to mpool ucp_requests
[1652714716.325635] [cn513-17-r:247483:0]          mpool.c:43   UCX  WARN  object 0x337ddc0 was not returned to mpool ucp_requests
[1652714716.325639] [cn513-17-r:247483:0]          mpool.c:43   UCX  WARN  object 0x337df80 was not returned to mpool ucp_requests
[1652714716.335350] [cn513-14-r:40892:0]          mpool.c:43   UCX  WARN  object 0x3953180 was not returned to mpool ucp_requests
[1652714716.335355] [cn513-14-r:40892:0]          mpool.c:43   UCX  WARN  object 0x3953340 was not returned to mpool ucp_requests
[1652714716.335359] [cn513-14-r:40892:0]          mpool.c:43   UCX  WARN  object 0x3953500 was not returned to mpool ucp_requests
[1652714716.335363] [cn513-14-r:40892:0]          mpool.c:43   UCX  WARN  object 0x39536c0 was not returned to mpool ucp_requests
[1652714716.335368] [cn513-14-r:40892:0]          mpool.c:43   UCX  WARN  object 0x3953880 was not returned to mpool ucp_requests
[1652714716.335371] [cn513-14-r:40892:0]          mpool.c:43   UCX  WARN  object 0x3953a40 was not returned to mpool ucp_requests
[1652714716.325647] [cn513-17-r:247483:0]          mpool.c:43   UCX  WARN  object 0x337e140 was not returned to mpool ucp_requests
[1652714716.325652] [cn513-17-r:247483:0]          mpool.c:43   UCX  WARN  object 0x337e300 was not returned to mpool ucp_requests
[1652714716.325656] [cn513-17-r:247483:0]          mpool.c:43   UCX  WARN  object 0x337e4c0 was not returned to mpool ucp_requests
[1652714716.325660] [cn513-17-r:247483:0]          mpool.c:43   UCX  WARN  object 0x337e680 was not returned to mpool ucp_requests
[1652714716.325667] [cn513-17-r:247483:0]          mpool.c:43   UCX  WARN  object 0x337e840 was not returned to mpool ucp_requests
[1652714716.335381] [cn513-14-r:40892:0]          mpool.c:43   UCX  WARN  object 0x3953c00 was not returned to mpool ucp_requests
[1652714716.335385] [cn513-14-r:40892:0]          mpool.c:43   UCX  WARN  object 0x3953dc0 was not returned to mpool ucp_requests
[1652714716.335388] [cn513-14-r:40892:0]          mpool.c:43   UCX  WARN  object 0x3953f80 was not returned to mpool ucp_requests
[1652714716.335392] [cn513-14-r:40892:0]          mpool.c:43   UCX  WARN  object 0x3954140 was not returned to mpool ucp_requests
[1652714716.335396] [cn513-14-r:40892:0]          mpool.c:43   UCX  WARN  object 0x3954300 was not returned to mpool ucp_requests
[1652714716.325671] [cn513-17-r:247483:0]          mpool.c:43   UCX  WARN  object 0x337ea00 was not returned to mpool ucp_requests
[1652714716.325676] [cn513-17-r:247483:0]          mpool.c:43   UCX  WARN  object 0x337ebc0 was not returned to mpool ucp_requests
[1652714716.325680] [cn513-17-r:247483:0]          mpool.c:43   UCX  WARN  object 0x337ed80 was not returned to mpool ucp_requests
[1652714716.325684] [cn513-17-r:247483:0]          mpool.c:43   UCX  WARN  object 0x337ef40 was not returned to mpool ucp_requests
[1652714716.335400] [cn513-14-r:40892:0]          mpool.c:43   UCX  WARN  object 0x39544c0 was not returned to mpool ucp_requests
[1652714716.335407] [cn513-14-r:40892:0]          mpool.c:43   UCX  WARN  object 0x3954680 was not returned to mpool ucp_requests
[...]
[1652714716.357935] [cn513-14-r:40910:0]          mpool.c:43   UCX  WARN  object 0x2e77400 was not returned to mpool ucp_requests
[1652714716.357939] [cn513-14-r:40910:0]          mpool.c:43   UCX  WARN  object 0x2e775c0 was not returned to mpool ucp_requests
[1652714716.357942] [cn513-14-r:40910:0]          mpool.c:43   UCX  WARN  object 0x2e77780 was not returned to mpool ucp_requests
[1652714716.357946] [cn513-14-r:40910:0]          mpool.c:43   UCX  WARN  object 0x2e77940 was not returned to mpool ucp_requests
[1652714716.357951] [cn513-14-r:40910:0]          mpool.c:43   UCX  WARN  object 0x2e77b00 was not returned to mpool ucp_requests
[1652714716.357954] [cn513-14-r:40910:0]          mpool.c:43   UCX  WARN  object 0x2e77cc0 was not returned to mpool ucp_requests
[1652714716.357958] [cn513-14-r:40910:0]          mpool.c:43   UCX  WARN  object 0x2e77e80 was not returned to mpool ucp_requests
[1652714716.357962] [cn513-14-r:40910:0]          mpool.c:43   UCX  WARN  object 0x2e78040 was not returned to mpool ucp_requests
[1652714716.357966] [cn513-14-r:40910:0]          mpool.c:43   UCX  WARN  object 0x2e78200 was not returned to mpool ucp_requests
[1652714716.357969] [cn513-14-r:40910:0]          mpool.c:43   UCX  WARN  object 0x2e783c0 was not returned to mpool ucp_requests
[1652714716.357975] [cn513-14-r:40910:0]          mpool.c:43   UCX  WARN  object 0x2e78580 was not returned to mpool ucp_requests
[1652714716.357978] [cn513-14-r:40910:0]          mpool.c:43   UCX  WARN  object 0x2e78740 was not returned to mpool ucp_requests
[1652714716.357982] [cn513-14-r:40910:0]          mpool.c:43   UCX  WARN  object 0x2e78900 was not returned to mpool ucp_requests
[1652714716.357985] [cn513-14-r:40910:0]          mpool.c:43   UCX  WARN  object 0x2e78ac0 was not returned to mpool ucp_requests
[1652714716.357989] [cn513-14-r:40910:0]          mpool.c:43   UCX  WARN  object 0x2e78c80 was not returned to mpool ucp_requests
[1652714716.357993] [cn513-14-r:40910:0]          mpool.c:43   UCX  WARN  object 0x2e78e40 was not returned to mpool ucp_requests
[1652714716.357996] [cn513-14-r:40910:0]          mpool.c:43   UCX  WARN  object 0x2e79000 was not returned to mpool ucp_requests
[1652714716.358000] [cn513-14-r:40910:0]          mpool.c:43   UCX  WARN  object 0x2e791c0 was not returned to mpool ucp_requests
[1652714716.358004] [cn513-14-r:40910:0]          mpool.c:43   UCX  WARN  object 0x2e79380 was not returned to mpool ucp_requests
[1652714716.358008] [cn513-14-r:40910:0]          mpool.c:43   UCX  WARN  object 0x2e79540 was not returned to mpool ucp_requests
[1652714716.358012] [cn513-14-r:40910:0]          mpool.c:43   UCX  WARN  object 0x2e79700 was not returned to mpool ucp_requests
[1652714716.358016] [cn513-14-r:40910:0]          mpool.c:43   UCX  WARN  object 0x2e798c0 was not returned to mpool ucp_requests
[1652714716.358019] [cn513-14-r:40910:0]          mpool.c:43   UCX  WARN  object 0x2e79a80 was not returned to mpool ucp_requests
[1652714716.358023] [cn513-14-r:40910:0]          mpool.c:43   UCX  WARN  object 0x2e79c40 was not returned to mpool ucp_requests
[1652714716.358026] [cn513-14-r:40910:0]          mpool.c:43   UCX  WARN  object 0x2e79e00 was not returned to mpool ucp_requests
[1652714716.358031] [cn513-14-r:40910:0]          mpool.c:43   UCX  WARN  object 0x23dd600 was not returned to mpool ucp_requests
[1652714716.358035] [cn513-14-r:40910:0]          mpool.c:43   UCX  WARN  object 0x23dd7c0 was not returned to mpool ucp_requests
[1652714716.358039] [cn513-14-r:40910:0]          mpool.c:43   UCX  WARN  object 0x23dd980 was not returned to mpool ucp_requests
[1652714716.358042] [cn513-14-r:40910:0]          mpool.c:43   UCX  WARN  object 0x23ddb40 was not returned to mpool ucp_requests
[1652714716.358046] [cn513-14-r:40910:0]          mpool.c:43   UCX  WARN  object 0x23ddd00 was not returned to mpool ucp_requests
[1652714716.358051] [cn513-14-r:40910:0]          mpool.c:43   UCX  WARN  object 0x23ddec0 was not returned to mpool ucp_requests
[1652714716.358055] [cn513-14-r:40910:0]          mpool.c:43   UCX  WARN  object 0x23de080 was not returned to mpool ucp_requests
[1652714716.358059] [cn513-14-r:40910:0]          mpool.c:43   UCX  WARN  object 0x23de240 was not returned to mpool ucp_requests
[1652714716.358062] [cn513-14-r:40910:0]          mpool.c:43   UCX  WARN  object 0x23de400 was not returned to mpool ucp_requests
[1652714716.358068] [cn513-14-r:40910:0]          mpool.c:43   UCX  WARN  object 0x23de5c0 was not returned to mpool ucp_requests
[1652714716.358071] [cn513-14-r:40910:0]          mpool.c:43   UCX  WARN  object 0x23de780 was not returned to mpool ucp_requests
[1652714716.358075] [cn513-14-r:40910:0]          mpool.c:43   UCX  WARN  object 0x23de940 was not returned to mpool ucp_requests
[1652714716.358079] [cn513-14-r:40910:0]          mpool.c:43   UCX  WARN  object 0x23deb00 was not returned to mpool ucp_requests
[1652714716.358082] [cn513-14-r:40910:0]          mpool.c:43   UCX  WARN  object 0x23decc0 was not returned to mpool ucp_requests
[1652714716.358086] [cn513-14-r:40910:0]          mpool.c:43   UCX  WARN  object 0x23dee80 was not returned to mpool ucp_requests
[1652714716.358090] [cn513-14-r:40910:0]          mpool.c:43   UCX  WARN  object 0x23df040 was not returned to mpool ucp_requests
[1652714716.358094] [cn513-14-r:40910:0]          mpool.c:43   UCX  WARN  object 0x23df200 was not returned to mpool ucp_requests
[1652714716.358097] [cn513-14-r:40910:0]          mpool.c:43   UCX  WARN  object 0x23df3c0 was not returned to mpool ucp_requests
[1652714716.358101] [cn513-14-r:40910:0]          mpool.c:43   UCX  WARN  object 0x23df580 was not returned to mpool ucp_requests
[1652714716.358104] [cn513-14-r:40910:0]          mpool.c:43   UCX  WARN  object 0x23df740 was not returned to mpool ucp_requests
[1652714716.358108] [cn513-14-r:40910:0]          mpool.c:43   UCX  WARN  object 0x23df900 was not returned to mpool ucp_requests
[1652714716.358112] [cn513-14-r:40910:0]          mpool.c:43   UCX  WARN  object 0x23dfac0 was not returned to mpool ucp_requests
[1652714716.358115] [cn513-14-r:40910:0]          mpool.c:43   UCX  WARN  object 0x23dfc80 was not returned to mpool ucp_requests
[1652714716.358121] [cn513-14-r:40910:0]          mpool.c:43   UCX  WARN  object 0x23dfe40 was not returned to mpool ucp_requests
[1652714716.358124] [cn513-14-r:40910:0]          mpool.c:43   UCX  WARN  object 0x23e0000 was not returned to mpool ucp_requests
[1652714716.358129] [cn513-14-r:40910:0]          mpool.c:43   UCX  WARN  object 0x23e01c0 was not returned to mpool ucp_requests
[1652714716.358132] [cn513-14-r:40910:0]          mpool.c:43   UCX  WARN  object 0x23e0380 was not returned to mpool ucp_requests
[1652714716.358136] [cn513-14-r:40910:0]          mpool.c:43   UCX  WARN  object 0x23e0540 was not returned to mpool ucp_requests
[1652714716.358140] [cn513-14-r:40910:0]          mpool.c:43   UCX  WARN  object 0x23e0700 was not returned to mpool ucp_requests
[1652714716.358144] [cn513-14-r:40910:0]          mpool.c:43   UCX  WARN  object 0x23e08c0 was not returned to mpool ucp_requests
[1652714716.358147] [cn513-14-r:40910:0]          mpool.c:43   UCX  WARN  object 0x23e0a80 was not returned to mpool ucp_requests
[1652714716.358151] [cn513-14-r:40910:0]          mpool.c:43   UCX  WARN  object 0x23e0c40 was not returned to mpool ucp_requests
[1652714716.358155] [cn513-14-r:40910:0]          mpool.c:43   UCX  WARN  object 0x23e0e00 was not returned to mpool ucp_requests
[1652714716.358159] [cn513-14-r:40910:0]          mpool.c:43   UCX  WARN  object 0x23e0fc0 was not returned to mpool ucp_requests
[1652714716.358163] [cn513-14-r:40910:0]          mpool.c:43   UCX  WARN  object 0x23e1180 was not returned to mpool ucp_requests
[1652714716.358167] [cn513-14-r:40910:0]          mpool.c:43   UCX  WARN  object 0x23e1340 was not returned to mpool ucp_requests
[1652714716.358170] [cn513-14-r:40910:0]          mpool.c:43   UCX  WARN  object 0x23e1500 was not returned to mpool ucp_requests
[1652714716.358174] [cn513-14-r:40910:0]          mpool.c:43   UCX  WARN  object 0x23e16c0 was not returned to mpool ucp_requests
[1652714716.358179] [cn513-14-r:40910:0]          mpool.c:43   UCX  WARN  object 0x23e1880 was not returned to mpool ucp_requests
[1652714716.358182] [cn513-14-r:40910:0]          mpool.c:43   UCX  WARN  object 0x23e1a40 was not returned to mpool ucp_requests
[1652714716.358186] [cn513-14-r:40910:0]          mpool.c:43   UCX  WARN  object 0x23e1c00 was not returned to mpool ucp_requests
[1652714716.358190] [cn513-14-r:40910:0]          mpool.c:43   UCX  WARN  object 0x23e1dc0 was not returned to mpool ucp_requests
[1652714716.358193] [cn513-14-r:40910:0]          mpool.c:43   UCX  WARN  object 0x23e1f80 was not returned to mpool ucp_requests
[1652714716.358205] [cn513-14-r:40910:0]          mpool.c:43   UCX  WARN  object 0x23e2140 was not returned to mpool ucp_requests
[1652714716.358209] [cn513-14-r:40910:0]          mpool.c:43   UCX  WARN  object 0x23e2300 was not returned to mpool ucp_requests
[1652714716.358213] [cn513-14-r:40910:0]          mpool.c:43   UCX  WARN  object 0x23e24c0 was not returned to mpool ucp_requests
[1652714716.358216] [cn513-14-r:40910:0]          mpool.c:43   UCX  WARN  object 0x23e2680 was not returned to mpool ucp_requests
[1652714716.358220] [cn513-14-r:40910:0]          mpool.c:43   UCX  WARN  object 0x23e2840 was not returned to mpool ucp_requests
[1652714716.358226] [cn513-14-r:40910:0]          mpool.c:43   UCX  WARN  object 0x23e2a00 was not returned to mpool ucp_requests
[1652714716.358230] [cn513-14-r:40910:0]          mpool.c:43   UCX  WARN  object 0x23e2bc0 was not returned to mpool ucp_requests
[1652714716.358233] [cn513-14-r:40910:0]          mpool.c:43   UCX  WARN  object 0x23e2d80 was not returned to mpool ucp_requests
[1652714716.358237] [cn513-14-r:40910:0]          mpool.c:43   UCX  WARN  object 0x23e2f40 was not returned to mpool ucp_requests
[1652714716.358241] [cn513-14-r:40910:0]          mpool.c:43   UCX  WARN  object 0x23e3100 was not returned to mpool ucp_requests
[1652714716.358246] [cn513-14-r:40910:0]          mpool.c:43   UCX  WARN  object 0x23e32c0 was not returned to mpool ucp_requests
[1652714716.358250] [cn513-14-r:40910:0]          mpool.c:43   UCX  WARN  object 0x23e3480 was not returned to mpool ucp_requests
[1652714716.358253] [cn513-14-r:40910:0]          mpool.c:43   UCX  WARN  object 0x23e3640 was not returned to mpool ucp_requests
[1652714716.358257] [cn513-14-r:40910:0]          mpool.c:43   UCX  WARN  object 0x23e3800 was not returned to mpool ucp_requests
[1652714716.358260] [cn513-14-r:40910:0]          mpool.c:43   UCX  WARN  object 0x23e39c0 was not returned to mpool ucp_requests
[1652714716.358266] [cn513-14-r:40910:0]          mpool.c:43   UCX  WARN  object 0x23e3b80 was not returned to mpool ucp_requests
[1652714716.358269] [cn513-14-r:40910:0]          mpool.c:43   UCX  WARN  object 0x23e3d40 was not returned to mpool ucp_requests
[1652714716.358273] [cn513-14-r:40910:0]          mpool.c:43   UCX  WARN  object 0x23e3f00 was not returned to mpool ucp_requests
[1652714716.358277] [cn513-14-r:40910:0]          mpool.c:43   UCX  WARN  object 0x23e40c0 was not returned to mpool ucp_requests
[1652714716.358282] [cn513-14-r:40910:0]          mpool.c:43   UCX  WARN  object 0x23e4280 was not returned to mpool ucp_requests
[1652714716.358285] [cn513-14-r:40910:0]          mpool.c:43   UCX  WARN  object 0x23e4440 was not returned to mpool ucp_requests
[1652714716.358289] [cn513-14-r:40910:0]          mpool.c:43   UCX  WARN  object 0x23e4600 was not returned to mpool ucp_requests
[1652714716.358293] [cn513-14-r:40910:0]          mpool.c:43   UCX  WARN  object 0x23e47c0 was not returned to mpool ucp_requests
[1652714716.358296] [cn513-14-r:40910:0]          mpool.c:43   UCX  WARN  object 0x23e4980 was not returned to mpool ucp_requests
[1652714716.358300] [cn513-14-r:40910:0]          mpool.c:43   UCX  WARN  object 0x23e4b40 was not returned to mpool ucp_requests
[1652714716.358305] [cn513-14-r:40910:0]          mpool.c:43   UCX  WARN  object 0x23e4d00 was not returned to mpool ucp_requests
[1652714716.358308] [cn513-14-r:40910:0]          mpool.c:43   UCX  WARN  object 0x23e4ec0 was not returned to mpool ucp_requests
[1652714716.358312] [cn513-14-r:40910:0]          mpool.c:43   UCX  WARN  object 0x23e5080 was not returned to mpool ucp_requests
[1652714716.358316] [cn513-14-r:40910:0]          mpool.c:43   UCX  WARN  object 0x23e5240 was not returned to mpool ucp_requests
[1652714716.358319] [cn513-14-r:40910:0]          mpool.c:43   UCX  WARN  object 0x23e5400 was not returned to mpool ucp_requests
[1652714716.358324] [cn513-14-r:40910:0]          mpool.c:43   UCX  WARN  object 0x23e55c0 was not returned to mpool ucp_requests
[1652714716.358327] [cn513-14-r:40910:0]          mpool.c:43   UCX  WARN  object 0x23e5780 was not returned to mpool ucp_requests
[1652714716.358331] [cn513-14-r:40910:0]          mpool.c:43   UCX  WARN  object 0x23e5940 was not returned to mpool ucp_requests
[1652714716.358335] [cn513-14-r:40910:0]          mpool.c:43   UCX  WARN  object 0x23e5b00 was not returned to mpool ucp_requests
[1652714716.358339] [cn513-14-r:40910:0]          mpool.c:43   UCX  WARN  object 0x23e5cc0 was not returned to mpool ucp_requests
[1652714716.358343] [cn513-14-r:40910:0]          mpool.c:43   UCX  WARN  object 0x23e5e80 was not returned to mpool ucp_requests
[1652714716.358347] [cn513-14-r:40910:0]          mpool.c:43   UCX  WARN  object 0x23e6040 was not returned to mpool ucp_requests
[1652714716.358351] [cn513-14-r:40910:0]          mpool.c:43   UCX  WARN  object 0x23e6200 was not returned to mpool ucp_requests
[1652714716.358354] [cn513-14-r:40910:0]          mpool.c:43   UCX  WARN  object 0x23e63c0 was not returned to mpool ucp_requests
[1652714716.358359] [cn513-14-r:40910:0]          mpool.c:43   UCX  WARN  object 0x23e6580 was not returned to mpool ucp_requests
[1652714716.358363] [cn513-14-r:40910:0]          mpool.c:43   UCX  WARN  object 0x23e6740 was not returned to mpool ucp_requests
[1652714716.358366] [cn513-14-r:40910:0]          mpool.c:43   UCX  WARN  object 0x23e6900 was not returned to mpool ucp_requests
[1652714716.358370] [cn513-14-r:40910:0]          mpool.c:43   UCX  WARN  object 0x23e6ac0 was not returned to mpool ucp_requests
[1652714716.358374] [cn513-14-r:40910:0]          mpool.c:43   UCX  WARN  object 0x23e6c80 was not returned to mpool ucp_requests
[1652714716.358378] [cn513-14-r:40910:0]          mpool.c:43   UCX  WARN  object 0x23e6e40 was not returned to mpool ucp_requests
[1652714716.358382] [cn513-14-r:40910:0]          mpool.c:43   UCX  WARN  object 0x23e7000 was not returned to mpool ucp_requests
[1652714716.358386] [cn513-14-r:40910:0]          mpool.c:43   UCX  WARN  object 0x23e71c0 was not returned to mpool ucp_requests
[1652714716.358389] [cn513-14-r:40910:0]          mpool.c:43   UCX  WARN  object 0x23e7380 was not returned to mpool ucp_requests
[1652714716.358393] [cn513-14-r:40910:0]          mpool.c:43   UCX  WARN  object 0x23e7540 was not returned to mpool ucp_requests
[1652714716.358398] [cn513-14-r:40910:0]          mpool.c:43   UCX  WARN  object 0x23e7700 was not returned to mpool ucp_requests
[1652714716.358402] [cn513-14-r:40910:0]          mpool.c:43   UCX  WARN  object 0x23e78c0 was not returned to mpool ucp_requests
[1652714716.358406] [cn513-14-r:40910:0]          mpool.c:43   UCX  WARN  object 0x23e7a80 was not returned to mpool ucp_requests
[1652714716.358409] [cn513-14-r:40910:0]          mpool.c:43   UCX  WARN  object 0x23e7c40 was not returned to mpool ucp_requests
[1652714716.358413] [cn513-14-r:40910:0]          mpool.c:43   UCX  WARN  object 0x23e7e00 was not returned to mpool ucp_requests
[1652714716.358418] [cn513-14-r:40910:0]          mpool.c:43   UCX  WARN  object 0x23e7fc0 was not returned to mpool ucp_requests
[1652714716.358422] [cn513-14-r:40910:0]          mpool.c:43   UCX  WARN  object 0x23e8180 was not returned to mpool ucp_requests
[1652714716.358426] [cn513-14-r:40910:0]          mpool.c:43   UCX  WARN  object 0x23e8340 was not returned to mpool ucp_requests
[1652714716.358429] [cn513-14-r:40910:0]          mpool.c:43   UCX  WARN  object 0x23e8500 was not returned to mpool ucp_requests
[1652714716.358433] [cn513-14-r:40910:0]          mpool.c:43   UCX  WARN  object 0x23e86c0 was not returned to mpool ucp_requests
[1652714716.358437] [cn513-14-r:40910:0]          mpool.c:43   UCX  WARN  object 0x23e8880 was not returned to mpool ucp_requests
[1652714716.358440] [cn513-14-r:40910:0]          mpool.c:43   UCX  WARN  object 0x23e8a40 was not returned to mpool ucp_requests
[1652714716.358444] [cn513-14-r:40910:0]          mpool.c:43   UCX  WARN  object 0x23e8c00 was not returned to mpool ucp_requests
[1652714716.358448] [cn513-14-r:40910:0]          mpool.c:43   UCX  WARN  object 0x23e8dc0 was not returned to mpool ucp_requests
[1652714716.358451] [cn513-14-r:40910:0]          mpool.c:43   UCX  WARN  object 0x23e8f80 was not returned to mpool ucp_requests
[1652714716.358456] [cn513-14-r:40910:0]          mpool.c:43   UCX  WARN  object 0x23e9140 was not returned to mpool ucp_requests
[1652714716.358460] [cn513-14-r:40910:0]          mpool.c:43   UCX  WARN  object 0x23e9300 was not returned to mpool ucp_requests
[1652714716.358464] [cn513-14-r:40910:0]          mpool.c:43   UCX  WARN  object 0x23e94c0 was not returned to mpool ucp_requests
[1652714716.358467] [cn513-14-r:40910:0]          mpool.c:43   UCX  WARN  object 0x23e9680 was not returned to mpool ucp_requests
[1652714716.358473] [cn513-14-r:40910:0]          mpool.c:43   UCX  WARN  object 0x23e9840 was not returned to mpool ucp_requests
[1652714716.358476] [cn513-14-r:40910:0]          mpool.c:43   UCX  WARN  object 0x23e9a00 was not returned to mpool ucp_requests
[1652714716.358480] [cn513-14-r:40910:0]          mpool.c:43   UCX  WARN  object 0x23e9bc0 was not returned to mpool ucp_requests
[1652714716.358484] [cn513-14-r:40910:0]          mpool.c:43   UCX  WARN  object 0x23e9d80 was not returned to mpool ucp_requests
[1652714716.358487] [cn513-14-r:40910:0]          mpool.c:43   UCX  WARN  object 0x23e9f40 was not returned to mpool ucp_requests
[1652714716.358491] [cn513-14-r:40910:0]          mpool.c:43   UCX  WARN  object 0x23ea100 was not returned to mpool ucp_requests
[1652714716.358495] [cn513-14-r:40910:0]          mpool.c:43   UCX  WARN  object 0x23ea2c0 was not returned to mpool ucp_requests
[1652714716.358499] [cn513-14-r:40910:0]          mpool.c:43   UCX  WARN  object 0x23ea480 was not returned to mpool ucp_requests
[1652714716.358502] [cn513-14-r:40910:0]          mpool.c:43   UCX  WARN  object 0x23ea640 was not returned to mpool ucp_requests
[1652714716.358506] [cn513-14-r:40910:0]          mpool.c:43   UCX  WARN  object 0x23ea800 was not returned to mpool ucp_requests
[1652714716.358511] [cn513-14-r:40910:0]          mpool.c:43   UCX  WARN  object 0x23ea9c0 was not returned to mpool ucp_requests
[1652714716.358515] [cn513-14-r:40910:0]          mpool.c:43   UCX  WARN  object 0x23eab80 was not returned to mpool ucp_requests
[1652714716.358518] [cn513-14-r:40910:0]          mpool.c:43   UCX  WARN  object 0x23ead40 was not returned to mpool ucp_requests
[1652714716.358522] [cn513-14-r:40910:0]          mpool.c:43   UCX  WARN  object 0x23eaf00 was not returned to mpool ucp_requests
[1652714716.358525] [cn513-14-r:40910:0]          mpool.c:43   UCX  WARN  object 0x23eb0c0 was not returned to mpool ucp_requests
[1652714716.358531] [cn513-14-r:40910:0]          mpool.c:43   UCX  WARN  object 0x23eb280 was not returned to mpool ucp_requests
[1652714716.358535] [cn513-14-r:40910:0]          mpool.c:43   UCX  WARN  object 0x23eb440 was not returned to mpool ucp_requests
