
     Program PWSCF v.6.6 starts on  8May2023 at  6:39: 5 

     This program is part of the open-source Quantum ESPRESSO suite
     for quantum simulation of materials; please cite
         "P. Giannozzi et al., J. Phys.:Condens. Matter 21 395502 (2009);
         "P. Giannozzi et al., J. Phys.:Condens. Matter 29 465901 (2017);
          URL http://www.quantum-espresso.org", 
     in publications or presentations arising from this work. More details at
     http://www.quantum-espresso.org/quote

     Parallel version (MPI), running on    24 processors

     MPI processes distributed on     1 nodes
     R & G space division:  proc/nbgrp/npool/nimage =      24
     Fft bands division:     nmany     =       1
     Reading input from INCAR-nscf.pw

     Current dimensions of program PWSCF are:
     Max number of different atomic species (ntypx) = 10
     Max number of k-points (npk) =  40000
     Max angular momentum in pseudopotentials (lmaxx) =  3

     Atomic positions and unit cell read from directory:
     ./wfc-out/pwscf.save/
     Atomic positions from file used, from input discarded
 

     Subspace diagonalization in iterative solution of the eigenvalue problem:
     a serial algorithm will be used

 
     Parallelization info
     --------------------
     sticks:   dense  smooth     PW     G-vecs:    dense   smooth      PW
     Min         135      72     21                26631    10362    1689
     Max         136      73     22                26644    10375    1692
     Sum        3255    1733    523               639277   248795   40575
 


     bravais-lattice index     =            0
     lattice parameter (alat)  =       8.4101  a.u.
     unit-cell volume          =    2575.4290 (a.u.)^3
     number of atoms/cell      =            4
     number of atomic types    =            2
     number of electrons       =        40.00
     number of Kohn-Sham states=           20
     kinetic-energy cutoff     =      80.0000  Ry
     charge density cutoff     =     600.0000  Ry
     Exchange-correlation= SLA  PW   PBE  PBE
                           (   1   4   3   4   0   0   0)

     celldm(1)=   8.410114  celldm(2)=   0.000000  celldm(3)=   0.000000
     celldm(4)=   0.000000  celldm(5)=   0.000000  celldm(6)=   0.000000

     crystal axes: (cart. coord. in units of alat)
               a(1) = (   1.000000   0.000000   0.000000 )  
               a(2) = (   0.000000   0.963423   0.000000 )  
               a(3) = (   0.000000   0.000000   4.493937 )  

     reciprocal axes: (cart. coord. in units 2 pi/alat)
               b(1) = (  1.000000  0.000000  0.000000 )  
               b(2) = (  0.000000  1.037966  0.000000 )  
               b(3) = (  0.000000  0.000000  0.222522 )  


     PseudoPot. # 1 for Sn read from file:
     ./Sn_pbe_v1.uspp.F.UPF
     MD5 check sum: 4cf58ce39ec5d5d420df3dd08604eb00
     Pseudo is Ultrasoft + core correction, Zval = 14.0
     Generated by new atomic code, or converted to UPF format
     Using radial grid of  891 points,  6 beta functions with: 
                l(1) =   0
                l(2) =   0
                l(3) =   1
                l(4) =   1
                l(5) =   2
                l(6) =   2
     Q(r) pseudized with  6 coefficients,  rinner =    1.200   1.200   1.200
                                                       1.200   1.200

     PseudoPot. # 2 for Se read from file:
     ./Se_pbe_v1.uspp.F.UPF
     MD5 check sum: 1b3568f3a8ae88f9a2a0ad0698632c85
     Pseudo is Ultrasoft + core correction, Zval =  6.0
     Generated by new atomic code, or converted to UPF format
     Using radial grid of  877 points,  6 beta functions with: 
                l(1) =   0
                l(2) =   0
                l(3) =   1
                l(4) =   1
                l(5) =   2
                l(6) =   2
     Q(r) pseudized with  8 coefficients,  rinner =    1.300   1.300   1.300
                                                       1.300   1.300

     atomic species   valence    mass     pseudopotential
        Sn            14.00   118.71000     Sn( 1.00)
        Se             6.00    78.96000     Se( 1.00)

     No symmetry found



   Cartesian axes

     site n.     atom                  positions (alat units)
         1           Sn  tau(   1) = (   0.5878087   0.7225671   0.6499466  )
         2           Sn  tau(   2) = (   0.0878107   0.2408557   0.0292849  )
         3           Se  tau(   3) = (   0.0262953   0.2408557   0.6384320  )
         4           Se  tau(   4) = (   0.5262933   0.7225671   0.0408090  )

     number of k points=   120

     Number of k-points >= 100: set verbosity='high' to print them.

     Dense  grid:   639277 G-vectors     FFT dimensions: (  72,  64, 300)

     Smooth grid:   248795 G-vectors     FFT dimensions: (  48,  48, 216)

     Estimated max dynamical RAM per process >      90.68 MB

     Estimated total dynamical RAM >       2.13 GB

     The potential is recalculated from file :
     ./wfc-out/pwscf.save/charge-density


     negative rho (up, down):  2.895E-05 0.000E+00
     Starting wfcs are   26 randomized atomic wfcs

     Band Structure Calculation
     Davidson diagonalization with overlap

     ethr =  2.50E-13,  avg # of iterations = 57.6

     total cpu time spent up to now is      114.9 secs

     End of band structure calculation

     Number of k-points >= 100: set verbosity='high' to print the bands.

     highest occupied level (ev):    -0.9816



               ==================================================
                            POLARIZATION CALCULATION
                         !!! NOT THOROUGHLY TESTED !!!
               --------------------------------------------------


                     K-POINTS STRINGS USED IN CALCULATIONS
                     ~~~~~~~~~~~~~~~~~~~~~~~~~~~~~~~~~~~~~

       G-vector along string (2 pi/a):  1.00000  0.00000  0.00000
       Modulus of the vector (1/bohr):  0.74710
       Number of k-points per string:  15
       Number of different strings  :   8


                               IONIC POLARIZATION
                               ~~~~~~~~~~~~~~~~~~

  ============================================================================
    Ion    Species    Charge              Position                Phase
  ----------------------------------------------------------------------------
     1        Sn      14.000       0.5878  0.7226  0.6499     0.22932 (mod 2)
     2        Sn      14.000       0.0878  0.2409  0.0293    -0.77065 (mod 2)
     3        Se       6.000       0.0263  0.2409  0.6384     0.15777 (mod 2)
     4        Se       6.000       0.5263  0.7226  0.0408    -0.84224 (mod 2)
  ----------------------------------------------------------------------------
                                               IONIC PHASE:   0.77420 (mod 2)
  ============================================================================


                            ELECTRONIC POLARIZATION
                            ~~~~~~~~~~~~~~~~~~~~~~~

  ============================================================================
    String     Weight      First k-point in string         Phase
  ----------------------------------------------------------------------------
       1      0.066667      0.0000  0.0000  0.0000    -0.48379
       2      0.133333      0.0000  0.0692  0.0000    -0.34602
       3      0.133333      0.0000  0.1384  0.0000    -0.22500
       4      0.133333      0.0000  0.2076  0.0000    -0.15203
       5      0.133333      0.0000  0.2768  0.0000    -0.09203
       6      0.133333      0.0000  0.3460  0.0000    -0.04566
       7      0.133333      0.0000  0.4152  0.0000    -0.02132
       8      0.133333      0.0000  0.4844  0.0000    -0.01301
  ----------------------------------------------------------------------------
                                          ELECTRONIC PHASE:  -0.15159
  ============================================================================


                               SUMMARY OF PHASES
                               ~~~~~~~~~~~~~~~~~

                          Ionic Phase:  0.77420
                     Electronic Phase: -0.15159
                          TOTAL PHASE:  0.62261 MOD_TOT: 2


                             VALUES OF POLARIZATION
                             ~~~~~~~~~~~~~~~~~~~~~~

        The calculation of phases done along the direction of vector 1
        of the reciprocal lattice gives the following contribution to
        the polarization vector (in different units, and being Omega
        the volume of the unit cell):

           P =   5.2362150  (mod  16.8202282)  (e/Omega).bohr

           P =   0.0020331  (mod   0.0065310)  e/bohr^2

           P =   0.1162383  (mod   0.3733908)  C/m^2

        The polarization direction is:  ( 1.00000 , 0.00000 , 0.00000 )


               ==================================================



     Writing output data file ./wfc-out/pwscf.save/
 
     init_run     :      0.80s CPU      1.09s WALL (       1 calls)
     electrons    :    117.26s CPU    120.99s WALL (       1 calls)

     Called by init_run:
     wfcinit      :      0.00s CPU      0.00s WALL (       1 calls)
     potinit      :      0.05s CPU      0.08s WALL (       1 calls)
     hinit0       :      0.30s CPU      0.30s WALL (       1 calls)

     Called by electrons:
     c_bands      :    109.92s CPU    113.48s WALL (       1 calls)
     v_of_rho     :      0.03s CPU      0.04s WALL (       1 calls)
     newd         :      0.14s CPU      0.31s WALL (       1 calls)

     Called by c_bands:
     init_us_2    :      0.18s CPU      0.24s WALL (     344 calls)
     cegterg      :    103.68s CPU    106.88s WALL (     366 calls)

     Called by *egterg:
     cdiaghg      :      5.02s CPU      5.09s WALL (    7034 calls)
     h_psi        :     78.20s CPU     81.05s WALL (    7400 calls)
     s_psi        :      3.74s CPU      3.83s WALL (    7400 calls)
     g_psi        :      0.58s CPU      0.59s WALL (    6914 calls)

     Called by h_psi:
     h_psi:calbec :      5.48s CPU      5.66s WALL (    7400 calls)
     vloc_psi     :     67.34s CPU     69.91s WALL (    7400 calls)
     add_vuspsi   :      4.70s CPU      4.79s WALL (    7400 calls)

     General routines
     calbec       :      6.19s CPU      6.39s WALL (    7624 calls)
     fft          :      0.03s CPU      0.04s WALL (      13 calls)
     ffts         :      0.00s CPU      0.00s WALL (       1 calls)
     fftw         :     60.73s CPU     63.05s WALL (  274932 calls)
     interpolate  :      0.00s CPU      0.00s WALL (       1 calls)
     davcio       :      0.10s CPU      0.35s WALL (     464 calls)
 
     Parallel routines
     fft_scatt_xy :      7.66s CPU      7.96s WALL (  274946 calls)
     fft_scatt_yz :     34.88s CPU     36.21s WALL (  274946 calls)
 
     PWSCF        :   2m 0.26s CPU   3m24.19s WALL

 
   This run was terminated on:   6:42:29   8May2023            

=------------------------------------------------------------------------------=
   JOB DONE.
=------------------------------------------------------------------------------=
