
     Program PWSCF v.6.6 starts on  8May2023 at  6:23:52 

     This program is part of the open-source Quantum ESPRESSO suite
     for quantum simulation of materials; please cite
         "P. Giannozzi et al., J. Phys.:Condens. Matter 21 395502 (2009);
         "P. Giannozzi et al., J. Phys.:Condens. Matter 29 465901 (2017);
          URL http://www.quantum-espresso.org", 
     in publications or presentations arising from this work. More details at
     http://www.quantum-espresso.org/quote

     Parallel version (MPI), running on    24 processors

     MPI processes distributed on     1 nodes
     R & G space division:  proc/nbgrp/npool/nimage =      24
     Fft bands division:     nmany     =       1
     Reading input from INCAR-relax.pw
Warning: card &CELL ignored
Warning: card     CELL_DYNAMICS  = "BFGS" ignored
Warning: card     ! CELL_DOFREE = "XY" ignored
Warning: card / ignored

     Current dimensions of program PWSCF are:
     Max number of different atomic species (ntypx) = 10
     Max number of k-points (npk) =  40000
     Max angular momentum in pseudopotentials (lmaxx) =  3

     Subspace diagonalization in iterative solution of the eigenvalue problem:
     a serial algorithm will be used

     Message from routine setup:
     using ibrav=0 with symmetry is DISCOURAGED, use correct ibrav instead
 
     Parallelization info
     --------------------
     sticks:   dense  smooth     PW     G-vecs:    dense   smooth      PW
     Min         135      72     20                26631    10362    1526
     Max         136      73     21                26644    10375    1539
     Sum        3255    1733    489               639277   248795   36729
 


     bravais-lattice index     =            0
     lattice parameter (alat)  =       8.4101  a.u.
     unit-cell volume          =    2575.4290 (a.u.)^3
     number of atoms/cell      =            4
     number of atomic types    =            2
     number of electrons       =        40.00
     number of Kohn-Sham states=           24
     kinetic-energy cutoff     =      80.0000  Ry
     charge density cutoff     =     600.0000  Ry
     convergence threshold     =      1.0E-10
     mixing beta               =       0.7000
     number of iterations used =            8  plain     mixing
     Exchange-correlation= SLA  PW   PBE  PBE
                           (   1   4   3   4   0   0   0)
     nstep                     =          100


     celldm(1)=   8.410114  celldm(2)=   0.000000  celldm(3)=   0.000000
     celldm(4)=   0.000000  celldm(5)=   0.000000  celldm(6)=   0.000000

     crystal axes: (cart. coord. in units of alat)
               a(1) = (   1.000000   0.000000   0.000000 )  
               a(2) = (   0.000000   0.963423   0.000000 )  
               a(3) = (   0.000000   0.000000   4.493937 )  

     reciprocal axes: (cart. coord. in units 2 pi/alat)
               b(1) = (  1.000000  0.000000  0.000000 )  
               b(2) = (  0.000000  1.037966  0.000000 )  
               b(3) = (  0.000000  0.000000  0.222522 )  


     PseudoPot. # 1 for Sn read from file:
     ./Sn_pbe_v1.uspp.F.UPF
     MD5 check sum: 4cf58ce39ec5d5d420df3dd08604eb00
     Pseudo is Ultrasoft + core correction, Zval = 14.0
     Generated by new atomic code, or converted to UPF format
     Using radial grid of  891 points,  6 beta functions with: 
                l(1) =   0
                l(2) =   0
                l(3) =   1
                l(4) =   1
                l(5) =   2
                l(6) =   2
     Q(r) pseudized with  6 coefficients,  rinner =    1.200   1.200   1.200
                                                       1.200   1.200

     PseudoPot. # 2 for Se read from file:
     ./Se_pbe_v1.uspp.F.UPF
     MD5 check sum: 1b3568f3a8ae88f9a2a0ad0698632c85
     Pseudo is Ultrasoft + core correction, Zval =  6.0
     Generated by new atomic code, or converted to UPF format
     Using radial grid of  877 points,  6 beta functions with: 
                l(1) =   0
                l(2) =   0
                l(3) =   1
                l(4) =   1
                l(5) =   2
                l(6) =   2
     Q(r) pseudized with  8 coefficients,  rinner =    1.300   1.300   1.300
                                                       1.300   1.300

     atomic species   valence    mass     pseudopotential
        Sn            14.00   118.71000     Sn( 1.00)
        Se             6.00    78.96000     Se( 1.00)

      2 Sym. Ops. (no inversion) found ( 1 have fractional translation)



   Cartesian axes

     site n.     atom                  positions (alat units)
         1           Sn  tau(   1) = (   0.5839905   0.7225671   0.6496267  )
         2           Sn  tau(   2) = (   0.0839891   0.2408557   0.0296133  )
         3           Se  tau(   3) = (   0.0301155   0.2408557   0.6395737  )
         4           Se  tau(   4) = (   0.5301129   0.7225671   0.0396587  )

     number of k points=    64  Marzari-Vanderbilt smearing, width (Ry)=  0.0100
                       cart. coord. in units 2pi/alat
        k(    1) = (   0.0000000   0.0000000   0.0000000), wk =   0.0088889
        k(    2) = (   0.0000000   0.0691977   0.0000000), wk =   0.0177778
        k(    3) = (   0.0000000   0.1383954   0.0000000), wk =   0.0177778
        k(    4) = (   0.0000000   0.2075932   0.0000000), wk =   0.0177778
        k(    5) = (   0.0000000   0.2767909   0.0000000), wk =   0.0177778
        k(    6) = (   0.0000000   0.3459886   0.0000000), wk =   0.0177778
        k(    7) = (   0.0000000   0.4151863   0.0000000), wk =   0.0177778
        k(    8) = (   0.0000000   0.4843840   0.0000000), wk =   0.0177778
        k(    9) = (   0.0666667   0.0000000   0.0000000), wk =   0.0177778
        k(   10) = (   0.0666667   0.0691977   0.0000000), wk =   0.0355556
        k(   11) = (   0.0666667   0.1383954   0.0000000), wk =   0.0355556
        k(   12) = (   0.0666667   0.2075932   0.0000000), wk =   0.0355556
        k(   13) = (   0.0666667   0.2767909   0.0000000), wk =   0.0355556
        k(   14) = (   0.0666667   0.3459886   0.0000000), wk =   0.0355556
        k(   15) = (   0.0666667   0.4151863   0.0000000), wk =   0.0355556
        k(   16) = (   0.0666667   0.4843840   0.0000000), wk =   0.0355556
        k(   17) = (   0.1333333   0.0000000   0.0000000), wk =   0.0177778
        k(   18) = (   0.1333333   0.0691977   0.0000000), wk =   0.0355556
        k(   19) = (   0.1333333   0.1383954   0.0000000), wk =   0.0355556
        k(   20) = (   0.1333333   0.2075932   0.0000000), wk =   0.0355556
        k(   21) = (   0.1333333   0.2767909   0.0000000), wk =   0.0355556
        k(   22) = (   0.1333333   0.3459886   0.0000000), wk =   0.0355556
        k(   23) = (   0.1333333   0.4151863   0.0000000), wk =   0.0355556
        k(   24) = (   0.1333333   0.4843840   0.0000000), wk =   0.0355556
        k(   25) = (   0.2000000   0.0000000   0.0000000), wk =   0.0177778
        k(   26) = (   0.2000000   0.0691977   0.0000000), wk =   0.0355556
        k(   27) = (   0.2000000   0.1383954   0.0000000), wk =   0.0355556
        k(   28) = (   0.2000000   0.2075932   0.0000000), wk =   0.0355556
        k(   29) = (   0.2000000   0.2767909   0.0000000), wk =   0.0355556
        k(   30) = (   0.2000000   0.3459886   0.0000000), wk =   0.0355556
        k(   31) = (   0.2000000   0.4151863   0.0000000), wk =   0.0355556
        k(   32) = (   0.2000000   0.4843840   0.0000000), wk =   0.0355556
        k(   33) = (   0.2666667   0.0000000   0.0000000), wk =   0.0177778
        k(   34) = (   0.2666667   0.0691977   0.0000000), wk =   0.0355556
        k(   35) = (   0.2666667   0.1383954   0.0000000), wk =   0.0355556
        k(   36) = (   0.2666667   0.2075932   0.0000000), wk =   0.0355556
        k(   37) = (   0.2666667   0.2767909   0.0000000), wk =   0.0355556
        k(   38) = (   0.2666667   0.3459886   0.0000000), wk =   0.0355556
        k(   39) = (   0.2666667   0.4151863   0.0000000), wk =   0.0355556
        k(   40) = (   0.2666667   0.4843840   0.0000000), wk =   0.0355556
        k(   41) = (   0.3333333   0.0000000   0.0000000), wk =   0.0177778
        k(   42) = (   0.3333333   0.0691977   0.0000000), wk =   0.0355556
        k(   43) = (   0.3333333   0.1383954   0.0000000), wk =   0.0355556
        k(   44) = (   0.3333333   0.2075932   0.0000000), wk =   0.0355556
        k(   45) = (   0.3333333   0.2767909   0.0000000), wk =   0.0355556
        k(   46) = (   0.3333333   0.3459886   0.0000000), wk =   0.0355556
        k(   47) = (   0.3333333   0.4151863   0.0000000), wk =   0.0355556
        k(   48) = (   0.3333333   0.4843840   0.0000000), wk =   0.0355556
        k(   49) = (   0.4000000   0.0000000   0.0000000), wk =   0.0177778
        k(   50) = (   0.4000000   0.0691977   0.0000000), wk =   0.0355556
        k(   51) = (   0.4000000   0.1383954   0.0000000), wk =   0.0355556
        k(   52) = (   0.4000000   0.2075932   0.0000000), wk =   0.0355556
        k(   53) = (   0.4000000   0.2767909   0.0000000), wk =   0.0355556
        k(   54) = (   0.4000000   0.3459886   0.0000000), wk =   0.0355556
        k(   55) = (   0.4000000   0.4151863   0.0000000), wk =   0.0355556
        k(   56) = (   0.4000000   0.4843840   0.0000000), wk =   0.0355556
        k(   57) = (   0.4666667   0.0000000   0.0000000), wk =   0.0177778
        k(   58) = (   0.4666667   0.0691977   0.0000000), wk =   0.0355556
        k(   59) = (   0.4666667   0.1383954   0.0000000), wk =   0.0355556
        k(   60) = (   0.4666667   0.2075932   0.0000000), wk =   0.0355556
        k(   61) = (   0.4666667   0.2767909   0.0000000), wk =   0.0355556
        k(   62) = (   0.4666667   0.3459886   0.0000000), wk =   0.0355556
        k(   63) = (   0.4666667   0.4151863   0.0000000), wk =   0.0355556
        k(   64) = (   0.4666667   0.4843840   0.0000000), wk =   0.0355556

     Dense  grid:   639277 G-vectors     FFT dimensions: (  72,  64, 300)

     Smooth grid:   248795 G-vectors     FFT dimensions: (  48,  48, 216)

     Estimated max dynamical RAM per process >     129.52 MB

     Estimated total dynamical RAM >       3.04 GB

     Initial potential from superposition of free atoms

     starting charge   37.99977, renormalised to   40.00000

     negative rho (up, down):  2.827E-03 0.000E+00
     Starting wfcs are   26 randomized atomic wfcs

     total cpu time spent up to now is        2.9 secs

     Self-consistent Calculation

     iteration #  1     ecut=    80.00 Ry     beta= 0.70
     Davidson diagonalization with overlap
     ethr =  1.00E-02,  avg # of iterations =  3.7

     negative rho (up, down):  5.685E-04 0.000E+00

     total cpu time spent up to now is        8.2 secs

     total energy              =    -413.23828703 Ry
     estimated scf accuracy    <       1.35347729 Ry

     iteration #  2     ecut=    80.00 Ry     beta= 0.70
     Davidson diagonalization with overlap
     ethr =  3.38E-03,  avg # of iterations =  2.2

     negative rho (up, down):  1.122E-04 0.000E+00

     total cpu time spent up to now is       13.3 secs

     total energy              =    -413.63146303 Ry
     estimated scf accuracy    <       0.68990162 Ry

     iteration #  3     ecut=    80.00 Ry     beta= 0.70
     Davidson diagonalization with overlap
     ethr =  1.72E-03,  avg # of iterations =  2.0

     negative rho (up, down):  2.563E-05 0.000E+00

     total cpu time spent up to now is       17.6 secs

     total energy              =    -413.79941186 Ry
     estimated scf accuracy    <       0.02486960 Ry

     iteration #  4     ecut=    80.00 Ry     beta= 0.70
     Davidson diagonalization with overlap
     ethr =  6.22E-05,  avg # of iterations =  2.9

     negative rho (up, down):  2.929E-05 0.000E+00

     total cpu time spent up to now is       22.1 secs

     total energy              =    -413.80344273 Ry
     estimated scf accuracy    <       0.00093353 Ry

     iteration #  5     ecut=    80.00 Ry     beta= 0.70
     Davidson diagonalization with overlap
     ethr =  2.33E-06,  avg # of iterations =  6.7

     negative rho (up, down):  2.880E-05 0.000E+00

     total cpu time spent up to now is       27.8 secs

     total energy              =    -413.80358570 Ry
     estimated scf accuracy    <       0.00092578 Ry

     iteration #  6     ecut=    80.00 Ry     beta= 0.70
     Davidson diagonalization with overlap
     ethr =  2.31E-06,  avg # of iterations =  4.6

     negative rho (up, down):  2.873E-05 0.000E+00

     total cpu time spent up to now is       32.7 secs

     total energy              =    -413.80369220 Ry
     estimated scf accuracy    <       0.00039106 Ry

     iteration #  7     ecut=    80.00 Ry     beta= 0.70
     Davidson diagonalization with overlap
     ethr =  9.78E-07,  avg # of iterations =  2.0

     negative rho (up, down):  2.847E-05 0.000E+00

     total cpu time spent up to now is       36.9 secs

     total energy              =    -413.80372655 Ry
     estimated scf accuracy    <       0.00003458 Ry

     iteration #  8     ecut=    80.00 Ry     beta= 0.70
     Davidson diagonalization with overlap
     ethr =  8.64E-08,  avg # of iterations =  3.7

     negative rho (up, down):  2.871E-05 0.000E+00

     total cpu time spent up to now is       41.7 secs

     total energy              =    -413.80373691 Ry
     estimated scf accuracy    <       0.00000023 Ry

     iteration #  9     ecut=    80.00 Ry     beta= 0.70
     Davidson diagonalization with overlap
     ethr =  5.69E-10,  avg # of iterations =  7.6

     negative rho (up, down):  2.887E-05 0.000E+00

     total cpu time spent up to now is       50.0 secs

     total energy              =    -413.80373808 Ry
     estimated scf accuracy    <       0.00000026 Ry

     iteration # 10     ecut=    80.00 Ry     beta= 0.70
     Davidson diagonalization with overlap
     ethr =  5.69E-10,  avg # of iterations =  2.0

     negative rho (up, down):  2.890E-05 0.000E+00

     total cpu time spent up to now is       54.2 secs

     total energy              =    -413.80373812 Ry
     estimated scf accuracy    <          9.1E-09 Ry

     iteration # 11     ecut=    80.00 Ry     beta= 0.70
     Davidson diagonalization with overlap
     ethr =  2.27E-11,  avg # of iterations =  4.0

     negative rho (up, down):  2.890E-05 0.000E+00

     total cpu time spent up to now is       59.2 secs

     total energy              =    -413.80373812 Ry
     estimated scf accuracy    <          1.4E-09 Ry

     iteration # 12     ecut=    80.00 Ry     beta= 0.70
     Davidson diagonalization with overlap
     ethr =  3.48E-12,  avg # of iterations =  2.7

     negative rho (up, down):  2.890E-05 0.000E+00

     total cpu time spent up to now is       63.7 secs

     End of self-consistent calculation

          k = 0.0000 0.0000 0.0000 ( 31103 PWs)   bands (ev):

   -22.2621 -22.2552 -22.2542 -22.2477 -22.2440 -22.2203 -22.2184 -22.2150
   -22.2069 -22.2023 -14.2094 -13.2087  -7.2484  -6.2479  -4.3611  -4.0337
    -3.8825  -2.7845  -2.7081  -1.5588   0.5854   2.3544   2.7983   2.9295

          k = 0.0000 0.0692 0.0000 ( 31121 PWs)   bands (ev):

   -22.2615 -22.2549 -22.2545 -22.2484 -22.2434 -22.2204 -22.2185 -22.2147
   -22.2072 -22.2023 -14.1901 -13.2050  -7.3064  -6.3201  -4.3580  -4.0126
    -3.8326  -2.7915  -2.5997  -1.5728   0.5997   2.4314   2.7151   2.8013

          k = 0.0000 0.1384 0.0000 ( 31105 PWs)   bands (ev):

   -22.2601 -22.2553 -22.2538 -22.2498 -22.2419 -22.2208 -22.2185 -22.2140
   -22.2079 -22.2024 -14.1329 -13.1958  -7.4617  -6.5226  -4.3293  -3.9394
    -3.7014  -2.7520  -2.3659  -1.6192   0.6473   2.2012   2.4947   2.5795

          k = 0.0000 0.2076 0.0000 ( 31103 PWs)   bands (ev):

   -22.2582 -22.2565 -22.2523 -22.2515 -22.2399 -22.2214 -22.2184 -22.2129
   -22.2091 -22.2026 -14.0414 -13.1878  -7.6691  -6.8158  -4.2481  -3.8078
    -3.5165  -2.6740  -2.0615  -1.7039   0.7399   1.5563   2.0330   2.5245

          k = 0.0000 0.2768 0.0000 ( 31091 PWs)   bands (ev):

   -22.2578 -22.2567 -22.2526 -22.2507 -22.2376 -22.2223 -22.2181 -22.2115
   -22.2105 -22.2030 -13.9214 -13.1908  -7.8765  -7.1494  -4.1082  -3.6241
    -3.3060  -2.5863  -1.8154  -1.7205   0.8886   0.9144   1.5550   2.1432

          k = 0.0000 0.3460 0.0000 ( 31049 PWs)   bands (ev):

   -22.2589 -22.2572 -22.2517 -22.2494 -22.2349 -22.2236 -22.2177 -22.2120
   -22.2100 -22.2035 -13.7813 -13.2162  -8.0374  -7.4774  -3.9181  -3.4055
    -3.1182  -2.5271  -1.8992  -1.3823   0.3448   1.0907   1.1681   1.6240

          k = 0.0000 0.4152 0.0000 ( 31003 PWs)   bands (ev):

   -22.2597 -22.2585 -22.2502 -22.2486 -22.2322 -22.2253 -22.2169 -22.2134
   -22.2083 -22.2043 -13.6328 -13.2734  -8.1178  -7.7627  -3.6931  -3.2141
    -3.0072  -2.5401  -1.8471  -1.1671  -0.0117   0.9504   1.0092   1.4088

          k = 0.0000 0.4844 0.0000 ( 30998 PWs)   bands (ev):

   -22.2599 -22.2595 -22.2490 -22.2484 -22.2296 -22.2273 -22.2160 -22.2148
   -22.2067 -22.2054 -13.4896 -13.3661  -8.0986  -7.9767  -3.4571  -3.2557
    -2.8383  -2.6507  -1.6107  -1.2992   0.0883   0.5024   0.9444   1.1422

          k = 0.0667 0.0000 0.0000 ( 31120 PWs)   bands (ev):

   -22.2619 -22.2551 -22.2544 -22.2480 -22.2435 -22.2204 -22.2183 -22.2149
   -22.2070 -22.2025 -14.1922 -13.2081  -7.3134  -6.3288  -4.3565  -3.9618
    -3.8533  -2.6892  -2.6782  -1.5794   0.5989   2.3961   2.6285   2.9229

          k = 0.0667 0.0692 0.0000 ( 31110 PWs)   bands (ev):

   -22.2613 -22.2548 -22.2545 -22.2487 -22.2429 -22.2205 -22.2183 -22.2147
   -22.2073 -22.2025 -14.1729 -13.2043  -7.3617  -6.3924  -4.3480  -4.0713
    -3.6829  -2.8368  -2.4466  -1.5906   0.6147   2.3532   2.4624   2.8972

          k = 0.0667 0.1384 0.0000 ( 31136 PWs)   bands (ev):

   -22.2599 -22.2555 -22.2536 -22.2501 -22.2414 -22.2208 -22.2184 -22.2139
   -22.2081 -22.2026 -14.1162 -13.1949  -7.4946  -6.5736  -4.3116  -4.1371
    -3.4391  -2.8907  -2.1621  -1.6274   0.6658   1.7969   2.5389   2.7680

          k = 0.0667 0.2076 0.0000 ( 31115 PWs)   bands (ev):

   -22.2581 -22.2567 -22.2521 -22.2518 -22.2394 -22.2214 -22.2184 -22.2128
   -22.2092 -22.2027 -14.0253 -13.1863  -7.6784  -6.8428  -4.2285  -4.1076
    -3.1907  -2.8591  -1.8734  -1.6921   0.7609   1.2075   2.2463   2.3821

          k = 0.0667 0.2768 0.0000 ( 31086 PWs)   bands (ev):

   -22.2581 -22.2569 -22.2526 -22.2505 -22.2371 -22.2224 -22.2182 -22.2114
   -22.2106 -22.2030 -13.9062 -13.1883  -7.8678  -7.1564  -4.0914  -3.9867
    -2.9752  -2.7776  -1.7643  -1.6273   0.7038   0.9033   1.7067   1.9046

          k = 0.0667 0.3460 0.0000 ( 31069 PWs)   bands (ev):

   -22.2593 -22.2576 -22.2515 -22.2492 -22.2346 -22.2236 -22.2177 -22.2121
   -22.2098 -22.2035 -13.7675 -13.2124  -8.0177  -7.4699  -3.9065  -3.7918
    -2.8578  -2.7030  -1.7806  -1.4748   0.3729   0.9849   1.2846   1.4711

          k = 0.0667 0.4152 0.0000 ( 31033 PWs)   bands (ev):

   -22.2601 -22.2590 -22.2499 -22.2483 -22.2320 -22.2253 -22.2170 -22.2135
   -22.2082 -22.2043 -13.6207 -13.2678  -8.0928  -7.7456  -3.6896  -3.5565
    -2.8886  -2.7134  -1.6825  -1.4248   0.2245   0.6152   1.2224   1.4556

          k = 0.0667 0.4844 0.0000 ( 30999 PWs)   bands (ev):

   -22.2603 -22.2599 -22.2487 -22.2482 -22.2295 -22.2272 -22.2160 -22.2148
   -22.2066 -22.2053 -13.4796 -13.3583  -8.0727  -7.9536  -3.4751  -3.3844
    -2.9580  -2.8438  -1.5312  -1.4377   0.1840   0.3009   1.2782   1.5808

          k = 0.1333 0.0000 0.0000 ( 31138 PWs)   bands (ev):

   -22.2613 -22.2548 -22.2548 -22.2489 -22.2419 -22.2206 -22.2177 -22.2147
   -22.2073 -22.2031 -14.1415 -13.2081  -7.4817  -6.5484  -4.3231  -3.7692
    -3.7669  -2.6360  -2.4007  -1.6427   0.6453   2.1577   2.4693   2.6240

          k = 0.1333 0.0692 0.0000 ( 31133 PWs)   bands (ev):

   -22.2608 -22.2551 -22.2543 -22.2495 -22.2413 -22.2207 -22.2179 -22.2144
   -22.2076 -22.2030 -14.1225 -13.2040  -7.5085  -6.5916  -4.3068  -4.0862
    -3.4146  -2.8428  -2.1514  -1.6439   0.6647   1.8054   2.4731   2.8199

          k = 0.1333 0.1384 0.0000 ( 31150 PWs)   bands (ev):

   -22.2594 -22.2561 -22.2532 -22.2510 -22.2399 -22.2210 -22.2182 -22.2135
   -22.2084 -22.2030 -14.0669 -13.1937  -7.5873  -6.7202  -4.3205  -4.2571
    -3.0778  -3.0423  -1.8424  -1.6459   0.7232   1.2752   2.2490   2.9363

          k = 0.1333 0.2076 0.0000 ( 31120 PWs)   bands (ev):

   -22.2578 -22.2574 -22.2525 -22.2517 -22.2380 -22.2216 -22.2183 -22.2123
   -22.2096 -22.2030 -13.9779 -13.1833  -7.7080  -6.9249  -4.4362  -4.1710
    -3.1291  -2.8121  -1.6483  -1.6371   0.8167   0.8485   1.7208   2.7791

          k = 0.1333 0.2768 0.0000 ( 31095 PWs)   bands (ev):

   -22.2589 -22.2575 -22.2526 -22.2500 -22.2358 -22.2225 -22.2182 -22.2110
   -22.2108 -22.2031 -13.8617 -13.1826  -7.8449  -7.1806  -4.4224  -4.0440
    -3.1154  -2.6785  -1.6637  -1.5913   0.6671   0.8630   1.2700   2.4142

          k = 0.1333 0.3460 0.0000 ( 31096 PWs)   bands (ev):

   -22.2602 -22.2588 -22.2510 -22.2486 -22.2336 -22.2237 -22.2178 -22.2124
   -22.2093 -22.2035 -13.7271 -13.2024  -7.9608  -7.4505  -4.2909  -3.8771
    -3.0647  -2.7063  -1.8396  -1.5185   0.5842   0.7217   1.3154   2.0125

          k = 0.1333 0.4152 0.0000 ( 31064 PWs)   bands (ev):

   -22.2612 -22.2603 -22.2492 -22.2477 -22.2313 -22.2253 -22.2171 -22.2137
   -22.2077 -22.2042 -13.5856 -13.2523  -8.0192  -7.6962  -4.0671  -3.6911
    -3.0933  -2.8544  -1.9520  -1.5180   0.3776   0.7936   1.5650   1.7710

          k = 0.1333 0.4844 0.0000 ( 31010 PWs)   bands (ev):

   -22.2616 -22.2612 -22.2480 -22.2475 -22.2291 -22.2271 -22.2161 -22.2150
   -22.2063 -22.2051 -13.4508 -13.3363  -7.9965  -7.8857  -3.7941  -3.5990
    -3.1794  -3.0524  -1.8582  -1.6600   0.4289   0.6435   1.8598   1.8818

          k = 0.2000 0.0000 0.0000 ( 31122 PWs)   bands (ev):

   -22.2603 -22.2553 -22.2544 -22.2502 -22.2396 -22.2209 -22.2169 -22.2143
   -22.2077 -22.2040 -14.0600 -13.2139  -7.6962  -6.8528  -4.2378  -3.6266
    -3.5070  -2.5593  -2.0257  -1.7462   0.7376   1.5733   2.1466   2.4155

          k = 0.2000 0.0692 0.0000 ( 31148 PWs)   bands (ev):

   -22.2599 -22.2558 -22.2539 -22.2507 -22.2390 -22.2210 -22.2173 -22.2139
   -22.2081 -22.2039 -14.0417 -13.2092  -7.7013  -6.8740  -4.2182  -4.0131
    -3.1237  -2.7884  -1.8138  -1.7242   0.7601   1.2465   2.2193   2.4517

          k = 0.2000 0.1384 0.0000 ( 31140 PWs)   bands (ev):

   -22.2587 -22.2568 -22.2527 -22.2521 -22.2377 -22.2213 -22.2178 -22.2128
   -22.2090 -22.2036 -13.9879 -13.1972  -7.7199  -6.9412  -4.3897  -4.1624
    -3.1050  -2.7750  -1.6451  -1.5985   0.8193   0.8755   1.7319   2.8121

          k = 0.2000 0.2076 0.0000 ( 31132 PWs)   bands (ev):

   -22.2584 -22.2578 -22.2531 -22.2511 -22.2360 -22.2219 -22.2181 -22.2115
   -22.2102 -22.2034 -13.9024 -13.1837  -7.7586  -7.0607  -4.6520  -4.0789
    -3.3221  -2.5950  -1.6646  -1.5009   0.7973   0.8354   1.2904   2.9595

          k = 0.2000 0.2768 0.0000 ( 31121 PWs)   bands (ev):

   -22.2601 -22.2588 -22.2520 -22.2493 -22.2341 -22.2228 -22.2182 -22.2115
   -22.2101 -22.2034 -13.7913 -13.1778  -7.8161  -7.2296  -4.7669  -3.9757
    -3.4096  -2.5893  -1.9847  -1.3809   0.6025   1.0084   1.2846   2.7581

          k = 0.2000 0.3460 0.0000 ( 31115 PWs)   bands (ev):

   -22.2617 -22.2606 -22.2500 -22.2478 -22.2322 -22.2240 -22.2179 -22.2127
   -22.2086 -22.2036 -13.6636 -13.1904  -7.8742  -7.4272  -4.7291  -3.8516
    -3.4284  -2.7054  -2.3342  -1.4436   0.4865   1.3265   1.4913   2.4395

          k = 0.2000 0.4152 0.0000 ( 31067 PWs)   bands (ev):

   -22.2628 -22.2622 -22.2482 -22.2468 -22.2303 -22.2254 -22.2172 -22.2139
   -22.2072 -22.2040 -13.5311 -13.2309  -7.9023  -7.6208  -4.5573  -3.7599
    -3.4831  -2.8980  -2.4700  -1.7063   0.6355   1.5011   1.7618   2.2401

          k = 0.2000 0.4844 0.0000 ( 31076 PWs)   bands (ev):

   -22.2634 -22.2631 -22.2470 -22.2465 -22.2286 -22.2269 -22.2162 -22.2151
   -22.2059 -22.2048 -13.4069 -13.3038  -7.8737  -7.7774  -4.2848  -3.9652
    -3.3605  -3.1303  -2.3269  -2.0376   0.9382   1.2847   2.0536   2.2634

          k = 0.2667 0.0000 0.0000 ( 31132 PWs)   bands (ev):

   -22.2592 -22.2559 -22.2540 -22.2517 -22.2366 -22.2215 -22.2159 -22.2137
   -22.2083 -22.2051 -13.9527 -13.2331  -7.9007  -7.1866  -4.0972  -3.4392
    -3.2348  -2.4798  -1.8635  -1.6098   0.8876   0.9734   1.6919   2.1204

          k = 0.2667 0.0692 0.0000 ( 31163 PWs)   bands (ev):

   -22.2588 -22.2564 -22.2535 -22.2522 -22.2362 -22.2215 -22.2164 -22.2131
   -22.2088 -22.2049 -13.9353 -13.2275  -7.8895  -7.1896  -4.0783  -3.8630
    -2.8811  -2.7067  -1.7895  -1.4968   0.7681   0.9083   1.7372   2.0116

          k = 0.2667 0.1384 0.0000 ( 31143 PWs)   bands (ev):

   -22.2581 -22.2577 -22.2532 -22.2523 -22.2351 -22.2218 -22.2172 -22.2119
   -22.2098 -22.2044 -13.8844 -13.2126  -7.8598  -7.2033  -4.3430  -4.0256
    -3.0967  -2.6340  -1.5684  -1.5402   0.7246   0.8974   1.2823   2.4746

          k = 0.2667 0.2076 0.0000 ( 31140 PWs)   bands (ev):

   -22.2594 -22.2585 -22.2530 -22.2505 -22.2336 -22.2224 -22.2177 -22.2110
   -22.2106 -22.2040 -13.8038 -13.1942  -7.8223  -7.2391  -4.7315  -3.9553
    -3.4255  -2.5798  -1.9126  -1.3508   0.6356   1.0515   1.2856   2.7681

          k = 0.2667 0.2768 0.0000 ( 31158 PWs)   bands (ev):

   -22.2614 -22.2604 -22.2511 -22.2486 -22.2321 -22.2232 -22.2179 -22.2121
   -22.2092 -22.2037 -13.7002 -13.1807  -7.7907  -7.3086  -4.9792  -3.9040
    -3.6156  -2.6470  -2.3911  -1.3918   0.5652   1.4920   1.5387   2.7650

          k = 0.2667 0.3460 0.0000 ( 31124 PWs)   bands (ev):

   -22.2633 -22.2625 -22.2490 -22.2470 -22.2306 -22.2243 -22.2177 -22.2132
   -22.2078 -22.2037 -13.5827 -13.1827  -7.7711  -7.4114  -5.0581  -3.8735
    -3.7387  -2.8026  -2.7447  -1.6866   0.7802   1.7679   2.0196   2.5822

          k = 0.2667 0.4152 0.0000 ( 31094 PWs)   bands (ev):

   -22.2647 -22.2642 -22.2471 -22.2459 -22.2293 -22.2256 -22.2170 -22.2141
   -22.2065 -22.2040 -13.4630 -13.2097  -7.7526  -7.5301  -4.9683  -4.0330
    -3.7531  -3.0309  -2.7980  -2.0458   1.1133   2.0805   2.1531   2.5535

          k = 0.2667 0.4844 0.0000 ( 31105 PWs)   bands (ev):

   -22.2654 -22.2652 -22.2459 -22.2455 -22.2281 -22.2268 -22.2161 -22.2151
   -22.2054 -22.2045 -13.3539 -13.2670  -7.7131  -7.6377  -4.7356  -4.4016
    -3.5584  -3.2999  -2.6346  -2.3714   1.4778   1.8416   2.3897   2.6099

          k = 0.3333 0.0000 0.0000 ( 31168 PWs)   bands (ev):

   -22.2579 -22.2564 -22.2539 -22.2532 -22.2335 -22.2223 -22.2148 -22.2129
   -22.2092 -22.2064 -13.8266 -13.2737  -8.0528  -7.5062  -3.9093  -3.2156
    -3.0425  -2.4297  -1.9122  -1.2036   0.4267   1.0990   1.3373   1.6659

          k = 0.3333 0.0692 0.0000 ( 31174 PWs)   bands (ev):

   -22.2577 -22.2569 -22.2536 -22.2534 -22.2331 -22.2224 -22.2154 -22.2122
   -22.2097 -22.2060 -13.8105 -13.2668  -8.0315  -7.4961  -3.8933  -3.6548
    -2.7894  -2.6473  -1.7448  -1.2664   0.4459   1.0617   1.2838   1.6224

          k = 0.3333 0.1384 0.0000 ( 31140 PWs)   bands (ev):

   -22.2584 -22.2578 -22.2537 -22.2520 -22.2323 -22.2227 -22.2164 -22.2109
   -22.2107 -22.2053 -13.7635 -13.2480  -7.9706  -7.4695  -4.1964  -3.8504
    -3.0789  -2.6869  -1.6370  -1.4306   0.6742   0.8096   1.3026   2.1056

          k = 0.3333 0.2076 0.0000 ( 31142 PWs)   bands (ev):

   -22.2604 -22.2595 -22.2523 -22.2501 -22.2312 -22.2231 -22.2171 -22.2118
   -22.2096 -22.2047 -13.6897 -13.2225  -7.8786  -7.4367  -4.6771  -3.8042
    -3.4970  -2.6995  -2.1831  -1.3737   0.5610   1.4268   1.4968   2.4513

          k = 0.3333 0.2768 0.0000 ( 31143 PWs)   bands (ev):

   -22.2627 -22.2620 -22.2501 -22.2481 -22.2301 -22.2239 -22.2174 -22.2128
   -22.2083 -22.2042 -13.5960 -13.1987  -7.7712  -7.4133  -5.0403  -3.8800
    -3.7465  -2.7953  -2.6758  -1.6597   0.8209   1.7855   2.0973   2.5717

          k = 0.3333 0.3460 0.0000 ( 31125 PWs)   bands (ev):

   -22.2648 -22.2643 -22.2479 -22.2464 -22.2292 -22.2248 -22.2172 -22.2136
   -22.2070 -22.2039 -13.4920 -13.1866  -7.6694  -7.4131  -5.2436  -4.0917
    -3.9072  -2.9898  -2.9129  -2.0202   1.1867   2.1491   2.5174   2.7287

          k = 0.3333 0.4152 0.0000 ( 31152 PWs)   bands (ev):

   -22.2665 -22.2662 -22.2461 -22.2451 -22.2284 -22.2258 -22.2166 -22.2143
   -22.2058 -22.2040 -13.3891 -13.1960  -7.5898  -7.4393  -5.2618  -4.4188
    -3.9719  -3.2774  -2.8806  -2.3135   1.5373   2.3707   2.5366   3.1292

          k = 0.3333 0.4844 0.0000 ( 31116 PWs)   bands (ev):

   -22.2673 -22.2672 -22.2450 -22.2446 -22.2277 -22.2268 -22.2158 -22.2150
   -22.2049 -22.2043 -13.2995 -13.2333  -7.5313  -7.4821  -5.1012  -4.7996
    -3.8415  -3.5887  -2.7337  -2.5421   1.8560   2.1390   2.8844   3.1255

          k = 0.4000 0.0000 0.0000 ( 31170 PWs)   bands (ev):

   -22.2567 -22.2565 -22.2546 -22.2541 -22.2304 -22.2236 -22.2136 -22.2118
   -22.2101 -22.2078 -13.6913 -13.3418  -8.1245  -7.7799  -3.6857  -3.0420
    -2.9737  -2.4464  -1.7715  -0.9426   0.0811   1.1427   1.1453   1.3818

          k = 0.4000 0.0692 0.0000 ( 31161 PWs)   bands (ev):

   -22.2572 -22.2569 -22.2545 -22.2535 -22.2302 -22.2237 -22.2143 -22.2111
   -22.2107 -22.2073 -13.6768 -13.3332  -8.0984  -7.7609  -3.6751  -3.4211
    -2.8739  -2.6705  -1.5574  -1.1661   0.3023   0.7436   1.4069   1.4217

          k = 0.4000 0.1384 0.0000 ( 31156 PWs)   bands (ev):

   -22.2589 -22.2582 -22.2535 -22.2520 -22.2296 -22.2238 -22.2153 -22.2118
   -22.2098 -22.2064 -13.6347 -13.3092  -8.0219  -7.7064  -3.9744  -3.6528
    -3.1373  -2.8596  -1.7014  -1.3684   0.4935   0.9049   1.5464   1.8852

          k = 0.4000 0.2076 0.0000 ( 31153 PWs)   bands (ev):

   -22.2612 -22.2606 -22.2515 -22.2501 -22.2289 -22.2241 -22.2161 -22.2128
   -22.2085 -22.2055 -13.5694 -13.2747  -7.9009  -7.6241  -4.5087  -3.7263
    -3.5445  -2.8927  -2.2823  -1.6044   0.7461   1.6518   1.7746   2.2465

          k = 0.4000 0.2768 0.0000 ( 31134 PWs)   bands (ev):

   -22.2637 -22.2632 -22.2492 -22.2479 -22.2283 -22.2246 -22.2165 -22.2136
   -22.2073 -22.2048 -13.4882 -13.2379  -7.7478  -7.5274  -4.9538  -4.1170
    -3.6618  -3.0047  -2.7195  -2.0047   1.1800   2.1333   2.2331   2.6316

          k = 0.4000 0.3460 0.0000 ( 31136 PWs)   bands (ev):

   -22.2660 -22.2657 -22.2470 -22.2460 -22.2279 -22.2254 -22.2164 -22.2141
   -22.2062 -22.2043 -13.4006 -13.2086  -7.5848  -7.4349  -5.2646  -4.4823
    -3.8870  -3.2497  -2.8706  -2.3088   1.5562   2.3737   2.5896   3.3048

          k = 0.4000 0.4152 0.0000 ( 31145 PWs)   bands (ev):

   -22.2678 -22.2677 -22.2453 -22.2446 -22.2276 -22.2262 -22.2160 -22.2145
   -22.2052 -22.2041 -13.3182 -13.1969  -7.4453  -7.3665  -5.4026  -4.8175
    -4.0804  -3.5853  -2.8308  -2.4862   1.8574   2.3696   3.0275   3.6089

          k = 0.4000 0.4844 0.0000 ( 31117 PWs)   bands (ev):

   -22.2688 -22.2687 -22.2442 -22.2440 -22.2273 -22.2268 -22.2155 -22.2150
   -22.2045 -22.2041 -13.2520 -13.2104  -7.3602  -7.3375  -5.3487  -5.1298
    -4.0782  -3.8915  -2.7296  -2.6134   2.0981   2.2729   3.3627   3.5679

          k = 0.4667 0.0000 0.0000 ( 31144 PWs)   bands (ev):

   -22.2563 -22.2556 -22.2556 -22.2547 -22.2277 -22.2254 -22.2124 -22.2112
   -22.2106 -22.2092 -13.5580 -13.4382  -8.1020  -7.9841  -3.4430  -3.2093
    -2.7407  -2.5534  -1.4570  -1.0968   0.2192   0.6477   1.1421   1.3297

          k = 0.4667 0.0692 0.0000 ( 31154 PWs)   bands (ev):

   -22.2572 -22.2568 -22.2545 -22.2539 -22.2275 -22.2254 -22.2131 -22.2119
   -22.2098 -22.2086 -13.5453 -13.4277  -8.0751  -7.9596  -3.4460  -3.2902
    -2.9487  -2.8024  -1.3347  -1.1893   0.2878   0.4295   1.4618   1.6652

          k = 0.4667 0.1384 0.0000 ( 31154 PWs)   bands (ev):

   -22.2590 -22.2587 -22.2529 -22.2524 -22.2273 -22.2253 -22.2142 -22.2130
   -22.2086 -22.2075 -13.5091 -13.3976  -7.9957  -7.8879  -3.7147  -3.5317
    -3.2276  -3.0759  -1.6209  -1.4622   0.5590   0.7715   1.8280   1.9486

          k = 0.4667 0.2076 0.0000 ( 31155 PWs)   bands (ev):

   -22.2614 -22.2612 -22.2508 -22.2503 -22.2270 -22.2254 -22.2150 -22.2139
   -22.2075 -22.2064 -13.4537 -13.3529  -7.8687  -7.7743  -4.2564  -3.9641
    -3.3542  -3.1210  -2.1628  -1.9060   1.0694   1.4262   2.0697   2.2753

          k = 0.4667 0.2768 0.0000 ( 31133 PWs)   bands (ev):

   -22.2641 -22.2640 -22.2485 -22.2481 -22.2268 -22.2256 -22.2155 -22.2145
   -22.2064 -22.2055 -13.3868 -13.3012  -7.7041  -7.6296  -4.7430  -4.4451
    -3.4771  -3.2450  -2.5745  -2.3229   1.5498   1.9080   2.4839   2.7397

          k = 0.4667 0.3460 0.0000 ( 31121 PWs)   bands (ev):

   -22.2666 -22.2665 -22.2464 -22.2460 -22.2269 -22.2261 -22.2156 -22.2148
   -22.2054 -22.2048 -13.3181 -13.2525  -7.5212  -7.4724  -5.1237  -4.8484
    -3.7533  -3.5258  -2.7297  -2.5401   1.8752   2.1503   2.9976   3.2933

          k = 0.4667 0.4152 0.0000 ( 31152 PWs)   bands (ev):

   -22.2686 -22.2685 -22.2447 -22.2445 -22.2270 -22.2266 -22.2154 -22.2149
   -22.2047 -22.2043 -13.2588 -13.2173  -7.3540  -7.3314  -5.3649  -5.1549
    -4.0385  -3.8608  -2.7325  -2.6167   2.1015   2.2747   3.4108   3.6312

          k = 0.4667 0.4844 0.0000 ( 31125 PWs)   bands (ev):

   -22.2696 -22.2696 -22.2438 -22.2437 -22.2271 -22.2269 -22.2151 -22.2150
   -22.2043 -22.2041 -13.2187 -13.2045  -7.2502  -7.2451  -5.4422  -5.3604
    -4.1745  -4.1055  -2.6950  -2.6558   2.2486   2.3077   3.6576   3.7543

     the Fermi energy is    -0.8667 ev

!    total energy              =    -413.80373812 Ry
     estimated scf accuracy    <          4.0E-11 Ry
     smearing contrib. (-TS)   =       0.00007349 Ry
     internal energy E=F+TS    =    -413.80381161 Ry

     The total energy is F=E-TS. E is the sum of the following terms:
     one-electron contribution =   -1174.83506001 Ry
     hartree contribution      =     599.52089536 Ry
     xc contribution           =    -154.38993156 Ry
     ewald contribution        =     315.90028459 Ry

     convergence has been achieved in  12 iterations

     negative rho (up, down):  2.890E-05 0.000E+00

     Forces acting on atoms (cartesian axes, Ry/au):

     atom    1 type  1   force =     0.00144340    0.00000000   -0.00099739
     atom    2 type  1   force =     0.00143885    0.00000000    0.00098797
     atom    3 type  2   force =    -0.00144188    0.00000000   -0.00061588
     atom    4 type  2   force =    -0.00144036    0.00000000    0.00062531

     Total force =     0.003324     Total SCF correction =     0.000012

     BFGS Geometry Optimization

     number of scf cycles    =   1
     number of bfgs steps    =   0

     energy   new            =    -413.8037381233 Ry

     new trust radius        =       0.0017544774 bohr
     new conv_thr            =            1.0E-10 Ry


ATOMIC_POSITIONS (crystal)
Sn            0.5841621157        0.7500000000        0.1445298684
Sn            0.0841601633        0.2500000000        0.0066157460
Se            0.0299440968        0.2500000000        0.1423029509
Se            0.5299415981        0.7500000000        0.0088414886



     Writing output data file ./wfc-out/pwscf.save/
     NEW-OLD atomic charge density approx. for the potential

     negative rho (up, down):  4.664E-05 0.000E+00

     total cpu time spent up to now is       66.9 secs

     Self-consistent Calculation

     iteration #  1     ecut=    80.00 Ry     beta= 0.70
     Davidson diagonalization with overlap
     ethr =  1.00E-06,  avg # of iterations =  2.0

     Threshold (ethr) on eigenvalues was too large:
     Diagonalizing with lowered threshold

     Davidson diagonalization with overlap
     ethr =  7.29E-10,  avg # of iterations =  6.6

     negative rho (up, down):  2.960E-05 0.000E+00

     total cpu time spent up to now is       78.2 secs

     total energy              =    -413.80374872 Ry
     estimated scf accuracy    <       0.00000044 Ry

     iteration #  2     ecut=    80.00 Ry     beta= 0.70
     Davidson diagonalization with overlap
     ethr =  1.10E-09,  avg # of iterations =  2.2

     negative rho (up, down):  2.860E-05 0.000E+00

     total cpu time spent up to now is       82.6 secs

     total energy              =    -413.80374868 Ry
     estimated scf accuracy    <       0.00000029 Ry

     iteration #  3     ecut=    80.00 Ry     beta= 0.70
     Davidson diagonalization with overlap
     ethr =  7.16E-10,  avg # of iterations =  2.0

     negative rho (up, down):  2.877E-05 0.000E+00

     total cpu time spent up to now is       86.9 secs

     total energy              =    -413.80374873 Ry
     estimated scf accuracy    <       0.00000002 Ry

     iteration #  4     ecut=    80.00 Ry     beta= 0.70
     Davidson diagonalization with overlap
     ethr =  5.09E-11,  avg # of iterations =  3.3

     negative rho (up, down):  2.886E-05 0.000E+00

     total cpu time spent up to now is       91.6 secs

     total energy              =    -413.80374873 Ry
     estimated scf accuracy    <       0.00000004 Ry

     iteration #  5     ecut=    80.00 Ry     beta= 0.70
     Davidson diagonalization with overlap
     ethr =  5.09E-11,  avg # of iterations =  2.6

     negative rho (up, down):  2.889E-05 0.000E+00

     total cpu time spent up to now is       95.8 secs

     total energy              =    -413.80374874 Ry
     estimated scf accuracy    <          2.9E-09 Ry

     iteration #  6     ecut=    80.00 Ry     beta= 0.70
     Davidson diagonalization with overlap
     ethr =  7.17E-12,  avg # of iterations =  2.5

     negative rho (up, down):  2.890E-05 0.000E+00

     total cpu time spent up to now is      100.2 secs

     total energy              =    -413.80374874 Ry
     estimated scf accuracy    <          1.7E-10 Ry

     iteration #  7     ecut=    80.00 Ry     beta= 0.70
     Davidson diagonalization with overlap
     ethr =  4.27E-13,  avg # of iterations =  3.2

     negative rho (up, down):  2.891E-05 0.000E+00

     total cpu time spent up to now is      104.9 secs

     End of self-consistent calculation

          k = 0.0000 0.0000 0.0000 ( 31103 PWs)   bands (ev):

   -22.2618 -22.2550 -22.2540 -22.2475 -22.2439 -22.2201 -22.2181 -22.2147
   -22.2066 -22.2020 -14.2124 -13.2106  -7.2501  -6.2482  -4.3623  -4.0344
    -3.8856  -2.7838  -2.7102  -1.5590   0.5865   2.3484   2.7963   2.9278

          k = 0.0000 0.0692 0.0000 ( 31121 PWs)   bands (ev):

   -22.2613 -22.2546 -22.2543 -22.2482 -22.2432 -22.2202 -22.2181 -22.2144
   -22.2068 -22.2020 -14.1930 -13.2068  -7.3081  -6.3204  -4.3593  -4.0137
    -3.8355  -2.7916  -2.6009  -1.5730   0.6008   2.4256   2.7120   2.8014

          k = 0.0000 0.1384 0.0000 ( 31105 PWs)   bands (ev):

   -22.2599 -22.2552 -22.2535 -22.2496 -22.2417 -22.2205 -22.2181 -22.2137
   -22.2076 -22.2021 -14.1359 -13.1977  -7.4634  -6.5229  -4.3308  -3.9409
    -3.7040  -2.7525  -2.3668  -1.6195   0.6484   2.2004   2.4934   2.5748

          k = 0.0000 0.2076 0.0000 ( 31103 PWs)   bands (ev):

   -22.2580 -22.2563 -22.2520 -22.2513 -22.2397 -22.2212 -22.2181 -22.2126
   -22.2088 -22.2023 -14.0443 -13.1897  -7.6709  -6.8163  -4.2498  -3.8097
    -3.5189  -2.6749  -2.0622  -1.7042   0.7411   1.5561   2.0328   2.5226

          k = 0.0000 0.2768 0.0000 ( 31091 PWs)   bands (ev):

   -22.2576 -22.2565 -22.2524 -22.2504 -22.2374 -22.2221 -22.2178 -22.2112
   -22.2102 -22.2026 -13.9242 -13.1927  -7.8783  -7.1501  -4.1101  -3.6263
    -3.3082  -2.5877  -1.8156  -1.7211   0.8898   0.9145   1.5557   2.1434

          k = 0.0000 0.3460 0.0000 ( 31049 PWs)   bands (ev):

   -22.2587 -22.2571 -22.2515 -22.2491 -22.2347 -22.2234 -22.2174 -22.2117
   -22.2096 -22.2032 -13.7840 -13.2182  -8.0392  -7.4784  -3.9201  -3.4082
    -3.1204  -2.5290  -1.8994  -1.3831   0.3455   1.0918   1.1696   1.6252

          k = 0.0000 0.4152 0.0000 ( 31003 PWs)   bands (ev):

   -22.2595 -22.2583 -22.2499 -22.2483 -22.2320 -22.2250 -22.2166 -22.2131
   -22.2080 -22.2040 -13.6354 -13.2756  -8.1195  -7.7639  -3.6952  -3.2175
    -3.0090  -2.5425  -1.8474  -1.1686  -0.0101   0.9525   1.0103   1.4105

          k = 0.0000 0.4844 0.0000 ( 30998 PWs)   bands (ev):

   -22.2597 -22.2593 -22.2487 -22.2482 -22.2294 -22.2271 -22.2156 -22.2144
   -22.2064 -22.2050 -13.4921 -13.3684  -8.1002  -7.9781  -3.4594  -3.2584
    -2.8406  -2.6534  -1.6115  -1.3006   0.0900   0.5039   0.9468   1.1445

          k = 0.0667 0.0000 0.0000 ( 31120 PWs)   bands (ev):

   -22.2616 -22.2548 -22.2542 -22.2478 -22.2433 -22.2202 -22.2179 -22.2146
   -22.2066 -22.2022 -14.1952 -13.2100  -7.3150  -6.3290  -4.3576  -3.9626
    -3.8565  -2.6914  -2.6776  -1.5797   0.6001   2.3901   2.6254   2.9230

          k = 0.0667 0.0692 0.0000 ( 31110 PWs)   bands (ev):

   -22.2611 -22.2546 -22.2543 -22.2485 -22.2427 -22.2203 -22.2180 -22.2143
   -22.2069 -22.2022 -14.1759 -13.2062  -7.3633  -6.3927  -4.3493  -4.0730
    -3.6853  -2.8375  -2.4473  -1.5909   0.6159   2.3514   2.4567   2.8970

          k = 0.0667 0.1384 0.0000 ( 31136 PWs)   bands (ev):

   -22.2597 -22.2554 -22.2534 -22.2499 -22.2412 -22.2206 -22.2181 -22.2136
   -22.2077 -22.2022 -14.1191 -13.1968  -7.4963  -6.5740  -4.3131  -4.1389
    -3.4414  -2.8913  -2.1629  -1.6277   0.6670   1.7963   2.5347   2.7667

          k = 0.0667 0.2076 0.0000 ( 31115 PWs)   bands (ev):

   -22.2579 -22.2566 -22.2519 -22.2516 -22.2392 -22.2212 -22.2181 -22.2124
   -22.2089 -22.2024 -14.0282 -13.1882  -7.6802  -6.8433  -4.2302  -4.1095
    -3.1930  -2.8599  -1.8743  -1.6923   0.7621   1.2077   2.2459   2.3815

          k = 0.0667 0.2768 0.0000 ( 31086 PWs)   bands (ev):

   -22.2579 -22.2567 -22.2524 -22.2503 -22.2369 -22.2221 -22.2179 -22.2110
   -22.2103 -22.2027 -13.9090 -13.1903  -7.8696  -7.1571  -4.0933  -3.9887
    -2.9777  -2.7787  -1.7646  -1.6284   0.7047   0.9045   1.7079   1.9047

          k = 0.0667 0.3460 0.0000 ( 31069 PWs)   bands (ev):

   -22.2591 -22.2575 -22.2513 -22.2489 -22.2344 -22.2234 -22.2174 -22.2118
   -22.2094 -22.2032 -13.7702 -13.2144  -8.0195  -7.4709  -3.9085  -3.7941
    -2.8603  -2.7046  -1.7810  -1.4760   0.3742   0.9860   1.2865   1.4721

          k = 0.0667 0.4152 0.0000 ( 31033 PWs)   bands (ev):

   -22.2599 -22.2588 -22.2497 -22.2481 -22.2318 -22.2250 -22.2167 -22.2132
   -22.2078 -22.2039 -13.6232 -13.2700  -8.0945  -7.7468  -3.6917  -3.5590
    -2.8907  -2.7155  -1.6833  -1.4258   0.2259   0.6170   1.2241   1.4572

          k = 0.0667 0.4844 0.0000 ( 30999 PWs)   bands (ev):

   -22.2602 -22.2598 -22.2485 -22.2479 -22.2293 -22.2270 -22.2157 -22.2145
   -22.2063 -22.2050 -13.4820 -13.3606  -8.0744  -7.9550  -3.4775  -3.3871
    -2.9598  -2.8460  -1.5323  -1.4387   0.1855   0.3028   1.2802   1.5827

          k = 0.1333 0.0000 0.0000 ( 31138 PWs)   bands (ev):

   -22.2610 -22.2546 -22.2545 -22.2487 -22.2418 -22.2203 -22.2174 -22.2144
   -22.2069 -22.2028 -14.1444 -13.2101  -7.4831  -6.5485  -4.3243  -3.7703
    -3.7700  -2.6383  -2.4003  -1.6432   0.6466   2.1551   2.4635   2.6237

          k = 0.1333 0.0692 0.0000 ( 31133 PWs)   bands (ev):

   -22.2605 -22.2550 -22.2541 -22.2493 -22.2412 -22.2204 -22.2176 -22.2140
   -22.2072 -22.2027 -14.1255 -13.2060  -7.5099  -6.5918  -4.3081  -4.0883
    -3.4168  -2.8441  -2.1519  -1.6443   0.6660   1.8041   2.4679   2.8188

          k = 0.1333 0.1384 0.0000 ( 31150 PWs)   bands (ev):

   -22.2592 -22.2559 -22.2530 -22.2508 -22.2397 -22.2208 -22.2178 -22.2132
   -22.2081 -22.2026 -14.0698 -13.1956  -7.5888  -6.7205  -4.3225  -4.2586
    -3.0801  -3.0433  -1.8434  -1.6462   0.7245   1.2751   2.2473   2.9350

          k = 0.1333 0.2076 0.0000 ( 31120 PWs)   bands (ev):

   -22.2576 -22.2572 -22.2523 -22.2514 -22.2378 -22.2214 -22.2180 -22.2119
   -22.2093 -22.2026 -13.9808 -13.1853  -7.7096  -6.9254  -4.4381  -4.1728
    -3.1299  -2.8146  -1.6497  -1.6374   0.8179   0.8493   1.7214   2.7784

          k = 0.1333 0.2768 0.0000 ( 31095 PWs)   bands (ev):

   -22.2587 -22.2573 -22.2523 -22.2498 -22.2357 -22.2223 -22.2179 -22.2106
   -22.2105 -22.2028 -13.8645 -13.1846  -7.8467  -7.1814  -4.4244  -4.0460
    -3.1161  -2.6809  -1.6652  -1.5918   0.6685   0.8641   1.2717   2.4141

          k = 0.1333 0.3460 0.0000 ( 31096 PWs)   bands (ev):

   -22.2601 -22.2587 -22.2507 -22.2483 -22.2334 -22.2235 -22.2175 -22.2120
   -22.2090 -22.2032 -13.7298 -13.2045  -7.9626  -7.4515  -4.2928  -3.8793
    -3.0659  -2.7086  -1.8405  -1.5194   0.5858   0.7232   1.3170   2.0129

          k = 0.1333 0.4152 0.0000 ( 31064 PWs)   bands (ev):

   -22.2610 -22.2601 -22.2490 -22.2474 -22.2311 -22.2251 -22.2168 -22.2134
   -22.2074 -22.2038 -13.5881 -13.2545  -8.0210  -7.6975  -4.0691  -3.6935
    -3.0950  -2.8565  -1.9522  -1.5189   0.3793   0.7946   1.5665   1.7722

          k = 0.1333 0.4844 0.0000 ( 31010 PWs)   bands (ev):

   -22.2614 -22.2611 -22.2478 -22.2472 -22.2289 -22.2269 -22.2158 -22.2146
   -22.2060 -22.2047 -13.4532 -13.3386  -7.9982  -7.8872  -3.7964  -3.6015
    -3.1811  -3.0543  -1.8582  -1.6604   0.4301   0.6443   1.8615   1.8836

          k = 0.2000 0.0000 0.0000 ( 31122 PWs)   bands (ev):

   -22.2601 -22.2551 -22.2541 -22.2499 -22.2394 -22.2207 -22.2166 -22.2140
   -22.2074 -22.2037 -14.0630 -13.2160  -7.6973  -6.8528  -4.2390  -3.6299
    -3.5083  -2.5618  -2.0254  -1.7467   0.7391   1.5711   2.1467   2.4109

          k = 0.2000 0.0692 0.0000 ( 31148 PWs)   bands (ev):

   -22.2597 -22.2556 -22.2536 -22.2505 -22.2388 -22.2208 -22.2169 -22.2135
   -22.2077 -22.2035 -14.0446 -13.2113  -7.7024  -6.8740  -4.2194  -4.0155
    -3.1259  -2.7902  -1.8143  -1.7248   0.7616   1.2455   2.2168   2.4509

          k = 0.2000 0.1384 0.0000 ( 31140 PWs)   bands (ev):

   -22.2585 -22.2566 -22.2525 -22.2519 -22.2375 -22.2211 -22.2174 -22.2125
   -22.2087 -22.2033 -13.9909 -13.1992  -7.7211  -6.9414  -4.3920  -4.1639
    -3.1064  -2.7774  -1.6457  -1.5996   0.8207   0.8757   1.7318   2.8113

          k = 0.2000 0.2076 0.0000 ( 31132 PWs)   bands (ev):

   -22.2582 -22.2577 -22.2528 -22.2508 -22.2358 -22.2217 -22.2178 -22.2112
   -22.2099 -22.2031 -13.9052 -13.1857  -7.7600  -7.0612  -4.6541  -4.0807
    -3.3231  -2.5974  -1.6659  -1.5016   0.7983   0.8366   1.2916   2.9597

          k = 0.2000 0.2768 0.0000 ( 31121 PWs)   bands (ev):

   -22.2599 -22.2586 -22.2518 -22.2491 -22.2339 -22.2226 -22.2179 -22.2112
   -22.2098 -22.2030 -13.7940 -13.1799  -7.8178  -7.2303  -4.7688  -3.9779
    -3.4104  -2.5916  -1.9857  -1.3818   0.6038   1.0096   1.2861   2.7586

          k = 0.2000 0.3460 0.0000 ( 31115 PWs)   bands (ev):

   -22.2615 -22.2604 -22.2498 -22.2475 -22.2320 -22.2238 -22.2175 -22.2124
   -22.2083 -22.2032 -13.6663 -13.1926  -7.8760  -7.4283  -4.7309  -3.8541
    -3.4295  -2.7076  -2.3343  -1.4442   0.4878   1.3276   1.4927   2.4403

          k = 0.2000 0.4152 0.0000 ( 31067 PWs)   bands (ev):

   -22.2627 -22.2620 -22.2480 -22.2465 -22.2301 -22.2252 -22.2168 -22.2136
   -22.2068 -22.2037 -13.5336 -13.2331  -7.9042  -7.6222  -4.5590  -3.7624
    -3.4848  -2.9002  -2.4693  -1.7062   0.6363   1.5016   1.7632   2.2416

          k = 0.2000 0.4844 0.0000 ( 31076 PWs)   bands (ev):

   -22.2632 -22.2630 -22.2468 -22.2463 -22.2284 -22.2267 -22.2159 -22.2148
   -22.2055 -22.2045 -13.4093 -13.3062  -7.8755  -7.7791  -4.2866  -3.9671
    -3.3627  -3.1326  -2.3261  -2.0370   0.9387   1.2850   2.0551   2.2652

          k = 0.2667 0.0000 0.0000 ( 31132 PWs)   bands (ev):

   -22.2590 -22.2557 -22.2538 -22.2515 -22.2364 -22.2212 -22.2156 -22.2134
   -22.2080 -22.2048 -13.9556 -13.2353  -7.9015  -7.1865  -4.0985  -3.4425
    -3.2364  -2.4827  -1.8642  -1.6098   0.8893   0.9716   1.6924   2.1176

          k = 0.2667 0.0692 0.0000 ( 31163 PWs)   bands (ev):

   -22.2586 -22.2562 -22.2533 -22.2520 -22.2360 -22.2213 -22.2161 -22.2128
   -22.2084 -22.2045 -13.9382 -13.2297  -7.8904  -7.1896  -4.0796  -3.8656
    -2.8834  -2.7091  -1.7902  -1.4973   0.7673   0.9100   1.7363   2.0114

          k = 0.2667 0.1384 0.0000 ( 31143 PWs)   bands (ev):

   -22.2579 -22.2575 -22.2530 -22.2520 -22.2349 -22.2216 -22.2169 -22.2116
   -22.2094 -22.2041 -13.8873 -13.2149  -7.8608  -7.2034  -4.3454  -4.0271
    -3.0987  -2.6362  -1.5693  -1.5410   0.7248   0.8988   1.2828   2.4745

          k = 0.2667 0.2076 0.0000 ( 31140 PWs)   bands (ev):

   -22.2593 -22.2583 -22.2527 -22.2503 -22.2334 -22.2222 -22.2174 -22.2106
   -22.2103 -22.2036 -13.8067 -13.1964  -7.8236  -7.2395  -4.7337  -3.9572
    -3.4271  -2.5819  -1.9132  -1.3517   0.6367   1.0521   1.2869   2.7692

          k = 0.2667 0.2768 0.0000 ( 31158 PWs)   bands (ev):

   -22.2613 -22.2602 -22.2509 -22.2484 -22.2319 -22.2230 -22.2176 -22.2118
   -22.2089 -22.2034 -13.7029 -13.1829  -7.7922  -7.3093  -4.9812  -3.9065
    -3.6168  -2.6491  -2.3911  -1.3922   0.5661   1.4933   1.5395   2.7665

          k = 0.2667 0.3460 0.0000 ( 31124 PWs)   bands (ev):

   -22.2631 -22.2624 -22.2487 -22.2467 -22.2304 -22.2241 -22.2173 -22.2128
   -22.2075 -22.2034 -13.5853 -13.1850  -7.7729  -7.4126  -5.0598  -3.8760
    -3.7402  -2.8049  -2.7438  -1.6863   0.7808   1.7691   2.0204   2.5835

          k = 0.2667 0.4152 0.0000 ( 31094 PWs)   bands (ev):

   -22.2645 -22.2641 -22.2469 -22.2456 -22.2291 -22.2253 -22.2167 -22.2138
   -22.2062 -22.2036 -13.4656 -13.2119  -7.7545  -7.5317  -4.9698  -4.0346
    -3.7555  -3.0332  -2.7968  -2.0449   1.1136   2.0815   2.1534   2.5552

          k = 0.2667 0.4844 0.0000 ( 31105 PWs)   bands (ev):

   -22.2652 -22.2651 -22.2457 -22.2453 -22.2279 -22.2266 -22.2158 -22.2148
   -22.2050 -22.2042 -13.3564 -13.2694  -7.7151  -7.6395  -4.7370  -4.4031
    -3.5607  -3.3022  -2.6335  -2.3704   1.4781   1.8418   2.3907   2.6111

          k = 0.3333 0.0000 0.0000 ( 31168 PWs)   bands (ev):

   -22.2577 -22.2562 -22.2537 -22.2530 -22.2333 -22.2221 -22.2145 -22.2126
   -22.2088 -22.2061 -13.8296 -13.2761  -8.0533  -7.5061  -3.9106  -3.2191
    -3.0443  -2.4329  -1.9131  -1.2040   0.4253   1.1009   1.3382   1.6643

          k = 0.3333 0.0692 0.0000 ( 31174 PWs)   bands (ev):

   -22.2575 -22.2568 -22.2534 -22.2531 -22.2329 -22.2222 -22.2151 -22.2119
   -22.2093 -22.2057 -13.8134 -13.2692  -8.0321  -7.4960  -3.8946  -3.6576
    -2.7916  -2.6503  -1.7458  -1.2667   0.4450   1.0632   1.2840   1.6228

          k = 0.3333 0.1384 0.0000 ( 31140 PWs)   bands (ev):

   -22.2582 -22.2576 -22.2535 -22.2518 -22.2321 -22.2224 -22.2160 -22.2106
   -22.2104 -22.2050 -13.7664 -13.2504  -7.9713  -7.4696  -4.1990  -3.8518
    -3.0817  -2.6888  -1.6370  -1.4317   0.6750   0.8092   1.3039   2.1061

          k = 0.3333 0.2076 0.0000 ( 31142 PWs)   bands (ev):

   -22.2603 -22.2594 -22.2521 -22.2499 -22.2310 -22.2229 -22.2168 -22.2115
   -22.2093 -22.2043 -13.6925 -13.2249  -7.8795  -7.4371  -4.6795  -3.8061
    -3.4995  -2.7015  -2.1827  -1.3742   0.5616   1.4267   1.4980   2.4526

          k = 0.3333 0.2768 0.0000 ( 31143 PWs)   bands (ev):

   -22.2625 -22.2618 -22.2499 -22.2479 -22.2299 -22.2236 -22.2170 -22.2125
   -22.2079 -22.2038 -13.5988 -13.2010  -7.7725  -7.4140  -5.0424  -3.8829
    -3.7480  -2.7974  -2.6746  -1.6593   0.8213   1.7864   2.0975   2.5734

          k = 0.3333 0.3460 0.0000 ( 31125 PWs)   bands (ev):

   -22.2647 -22.2642 -22.2477 -22.2461 -22.2290 -22.2246 -22.2169 -22.2133
   -22.2066 -22.2036 -13.4946 -13.1889  -7.6712  -7.4143  -5.2453  -4.0942
    -3.9088  -2.9920  -2.9117  -2.0193   1.1871   2.1496   2.5185   2.7295

          k = 0.3333 0.4152 0.0000 ( 31152 PWs)   bands (ev):

   -22.2663 -22.2660 -22.2459 -22.2449 -22.2282 -22.2256 -22.2163 -22.2140
   -22.2055 -22.2036 -13.3917 -13.1983  -7.5919  -7.4410  -5.2630  -4.4202
    -3.9738  -3.2795  -2.8797  -2.3125   1.5377   2.3715   2.5369   3.1300

          k = 0.3333 0.4844 0.0000 ( 31116 PWs)   bands (ev):

   -22.2671 -22.2671 -22.2447 -22.2444 -22.2274 -22.2266 -22.2155 -22.2147
   -22.2046 -22.2039 -13.3020 -13.2357  -7.5335  -7.4842  -5.1022  -4.8007
    -3.8433  -3.5906  -2.7329  -2.5413   1.8565   2.1395   2.8847   3.1259

          k = 0.4000 0.0000 0.0000 ( 31170 PWs)   bands (ev):

   -22.2565 -22.2563 -22.2544 -22.2539 -22.2302 -22.2234 -22.2133 -22.2115
   -22.2098 -22.2075 -13.6942 -13.3443  -8.1248  -7.7798  -3.6870  -3.0436
    -2.9773  -2.4500  -1.7727  -0.9437   0.0805   1.1440   1.1447   1.3835

          k = 0.4000 0.0692 0.0000 ( 31161 PWs)   bands (ev):

   -22.2570 -22.2567 -22.2543 -22.2533 -22.2300 -22.2234 -22.2140 -22.2107
   -22.2104 -22.2069 -13.6797 -13.3357  -8.0988  -7.7609  -3.6764  -3.4240
    -2.8760  -2.6740  -1.5587  -1.1664   0.3011   0.7439   1.4080   1.4233

          k = 0.4000 0.1384 0.0000 ( 31156 PWs)   bands (ev):

   -22.2587 -22.2580 -22.2533 -22.2518 -22.2294 -22.2236 -22.2150 -22.2115
   -22.2095 -22.2060 -13.6376 -13.3117  -8.0224  -7.7065  -3.9773  -3.6543
    -3.1408  -2.8614  -1.7008  -1.3692   0.4938   0.9036   1.5478   1.8864

          k = 0.4000 0.2076 0.0000 ( 31153 PWs)   bands (ev):

   -22.2610 -22.2604 -22.2513 -22.2498 -22.2287 -22.2239 -22.2158 -22.2125
   -22.2082 -22.2052 -13.5722 -13.2772  -7.9017  -7.6245  -4.5114  -3.7290
    -3.5469  -2.8946  -2.2811  -1.6041   0.7461   1.6507   1.7756   2.2481

          k = 0.4000 0.2768 0.0000 ( 31134 PWs)   bands (ev):

   -22.2635 -22.2631 -22.2490 -22.2477 -22.2281 -22.2244 -22.2162 -22.2133
   -22.2070 -22.2045 -13.4909 -13.2403  -7.7489  -7.5282  -4.9561  -4.1201
    -3.6635  -3.0068  -2.7180  -2.0038   1.1803   2.1337   2.2338   2.6318

          k = 0.4000 0.3460 0.0000 ( 31136 PWs)   bands (ev):

   -22.2658 -22.2656 -22.2468 -22.2458 -22.2277 -22.2252 -22.2161 -22.2138
   -22.2058 -22.2040 -13.4033 -13.2110  -7.5865  -7.4362  -5.2663  -4.4847
    -3.8883  -3.2517  -2.8696  -2.3078   1.5568   2.3749   2.5895   3.3044

          k = 0.4000 0.4152 0.0000 ( 31145 PWs)   bands (ev):

   -22.2677 -22.2675 -22.2450 -22.2444 -22.2274 -22.2259 -22.2157 -22.2142
   -22.2049 -22.2037 -13.3207 -13.1993  -7.4475  -7.3684  -5.4037  -4.8188
    -4.0818  -3.5869  -2.8302  -2.4855   1.8580   2.3704   3.0272   3.6087

          k = 0.4000 0.4844 0.0000 ( 31117 PWs)   bands (ev):

   -22.2686 -22.2686 -22.2440 -22.2438 -22.2271 -22.2266 -22.2151 -22.2146
   -22.2042 -22.2038 -13.2544 -13.2128  -7.3628  -7.3399  -5.3493  -5.1304
    -4.0796  -3.8930  -2.7292  -2.6129   2.0985   2.2733   3.3624   3.5679

          k = 0.4667 0.0000 0.0000 ( 31144 PWs)   bands (ev):

   -22.2561 -22.2554 -22.2554 -22.2545 -22.2275 -22.2252 -22.2120 -22.2109
   -22.2103 -22.2089 -13.5608 -13.4409  -8.1021  -7.9841  -3.4444  -3.2108
    -2.7445  -2.5572  -1.4585  -1.0985   0.2191   0.6474   1.1437   1.3313

          k = 0.4667 0.0692 0.0000 ( 31154 PWs)   bands (ev):

   -22.2570 -22.2567 -22.2543 -22.2537 -22.2273 -22.2251 -22.2128 -22.2115
   -22.2095 -22.2082 -13.5481 -13.4303  -8.0753  -7.9597  -3.4475  -3.2922
    -2.9517  -2.8060  -1.3359  -1.1900   0.2870   0.4295   1.4630   1.6664

          k = 0.4667 0.1384 0.0000 ( 31154 PWs)   bands (ev):

   -22.2588 -22.2585 -22.2527 -22.2521 -22.2270 -22.2251 -22.2139 -22.2126
   -22.2083 -22.2071 -13.5118 -13.4002  -7.9960  -7.8880  -3.7176  -3.5339
    -3.2305  -3.0779  -1.6203  -1.4622   0.5584   0.7702   1.8294   1.9499

          k = 0.4667 0.2076 0.0000 ( 31155 PWs)   bands (ev):

   -22.2613 -22.2611 -22.2506 -22.2501 -22.2267 -22.2251 -22.2147 -22.2136
   -22.2071 -22.2061 -13.4564 -13.3555  -7.8693  -7.7747  -4.2593  -3.9672
    -3.3562  -3.1229  -2.1616  -1.9052   1.0690   1.4255   2.0704   2.2760

          k = 0.4667 0.2768 0.0000 ( 31133 PWs)   bands (ev):

   -22.2639 -22.2638 -22.2483 -22.2478 -22.2266 -22.2254 -22.2152 -22.2142
   -22.2060 -22.2052 -13.3894 -13.3038  -7.7051  -7.6305  -4.7456  -4.4479
    -3.4790  -3.2470  -2.5731  -2.3217   1.5503   1.9087   2.4836   2.7391

          k = 0.4667 0.3460 0.0000 ( 31121 PWs)   bands (ev):

   -22.2665 -22.2664 -22.2461 -22.2458 -22.2267 -22.2258 -22.2153 -22.2145
   -22.2051 -22.2045 -13.3207 -13.2550  -7.5227  -7.4738  -5.1256  -4.8505
    -3.7546  -3.5273  -2.7288  -2.5393   1.8760   2.1514   2.9968   3.2923

          k = 0.4667 0.4152 0.0000 ( 31152 PWs)   bands (ev):

   -22.2684 -22.2683 -22.2445 -22.2443 -22.2268 -22.2263 -22.2151 -22.2146
   -22.2044 -22.2040 -13.2613 -13.2198  -7.3562  -7.3335  -5.3659  -5.1561
    -4.0397  -3.8621  -2.7320  -2.6162   2.1021   2.2754   3.4101   3.6306

          k = 0.4667 0.4844 0.0000 ( 31125 PWs)   bands (ev):

   -22.2694 -22.2694 -22.2436 -22.2435 -22.2268 -22.2267 -22.2148 -22.2147
   -22.2039 -22.2038 -13.2211 -13.2070  -7.2530  -7.2479  -5.4425  -5.3607
    -4.1758  -4.1068  -2.6947  -2.6555   2.2488   2.3080   3.6573   3.7540

     the Fermi energy is    -0.8685 ev

!    total energy              =    -413.80374874 Ry
     estimated scf accuracy    <          2.4E-12 Ry
     smearing contrib. (-TS)   =       0.00007452 Ry
     internal energy E=F+TS    =    -413.80382325 Ry

     The total energy is F=E-TS. E is the sum of the following terms:
     one-electron contribution =   -1175.03186638 Ry
     hartree contribution      =     599.61884438 Ry
     xc contribution           =    -154.39070845 Ry
     ewald contribution        =     315.99990720 Ry

     convergence has been achieved in   7 iterations

     negative rho (up, down):  2.891E-05 0.000E+00

     Forces acting on atoms (cartesian axes, Ry/au):

     atom    1 type  1   force =     0.00138064    0.00000000   -0.00081347
     atom    2 type  1   force =     0.00138095    0.00000000    0.00080695
     atom    3 type  2   force =    -0.00138140    0.00000000   -0.00048099
     atom    4 type  2   force =    -0.00138019    0.00000000    0.00048751

     Total force =     0.003067     Total SCF correction =     0.000004

     number of scf cycles    =   2
     number of bfgs steps    =   1

     energy   old            =    -413.8037381233 Ry
     energy   new            =    -413.8037487370 Ry

     CASE: energy  _new < energy  _old


     WARNING: bfgs curvature condition failed, Theta= 0.869
     new trust radius        =       0.0019299251 bohr
     new conv_thr            =            1.1E-11 Ry


ATOMIC_POSITIONS (crystal)
Sn            0.5843573852        0.7500000000        0.1445030461
Sn            0.0843552950        0.2500000000        0.0066423415
Se            0.0297488057        0.2500000000        0.1422868743
Se            0.5297464880        0.7500000000        0.0088577921



     Writing output data file ./wfc-out/pwscf.save/
     NEW-OLD atomic charge density approx. for the potential

     negative rho (up, down):  4.958E-05 0.000E+00

     total cpu time spent up to now is      107.8 secs

     Self-consistent Calculation

     iteration #  1     ecut=    80.00 Ry     beta= 0.70
     Davidson diagonalization with overlap
     ethr =  1.00E-06,  avg # of iterations =  2.0

     Threshold (ethr) on eigenvalues was too large:
     Diagonalizing with lowered threshold

     Davidson diagonalization with overlap
     ethr =  8.72E-10,  avg # of iterations =  6.6

     negative rho (up, down):  2.995E-05 0.000E+00

     total cpu time spent up to now is      119.1 secs

     total energy              =    -413.80375949 Ry
     estimated scf accuracy    <       0.00000051 Ry

     iteration #  2     ecut=    80.00 Ry     beta= 0.70
     Davidson diagonalization with overlap
     ethr =  1.28E-09,  avg # of iterations =  2.1

     negative rho (up, down):  2.862E-05 0.000E+00

     total cpu time spent up to now is      123.5 secs

     total energy              =    -413.80375946 Ry
     estimated scf accuracy    <       0.00000030 Ry

     iteration #  3     ecut=    80.00 Ry     beta= 0.70
     Davidson diagonalization with overlap
     ethr =  7.43E-10,  avg # of iterations =  2.0

     negative rho (up, down):  2.877E-05 0.000E+00

     total cpu time spent up to now is      127.7 secs

     total energy              =    -413.80375952 Ry
     estimated scf accuracy    <       0.00000002 Ry

     iteration #  4     ecut=    80.00 Ry     beta= 0.70
     Davidson diagonalization with overlap
     ethr =  4.68E-11,  avg # of iterations =  2.7

     negative rho (up, down):  2.887E-05 0.000E+00

     total cpu time spent up to now is      132.2 secs

     total energy              =    -413.80375952 Ry
     estimated scf accuracy    <          2.0E-09 Ry

     iteration #  5     ecut=    80.00 Ry     beta= 0.70
     Davidson diagonalization with overlap
     ethr =  4.98E-12,  avg # of iterations =  2.8

     negative rho (up, down):  2.890E-05 0.000E+00

     total cpu time spent up to now is      136.8 secs

     total energy              =    -413.80375952 Ry
     estimated scf accuracy    <          3.1E-10 Ry

     iteration #  6     ecut=    80.00 Ry     beta= 0.70
     Davidson diagonalization with overlap
     ethr =  7.64E-13,  avg # of iterations =  3.3

     negative rho (up, down):  2.891E-05 0.000E+00

     total cpu time spent up to now is      141.3 secs

     total energy              =    -413.80375952 Ry
     estimated scf accuracy    <          6.6E-10 Ry

     iteration #  7     ecut=    80.00 Ry     beta= 0.70
     Davidson diagonalization with overlap
     ethr =  7.64E-13,  avg # of iterations =  2.4

     negative rho (up, down):  2.892E-05 0.000E+00

     total cpu time spent up to now is      145.5 secs

     End of self-consistent calculation

          k = 0.0000 0.0000 0.0000 ( 31103 PWs)   bands (ev):

   -22.2616 -22.2547 -22.2538 -22.2473 -22.2437 -22.2199 -22.2178 -22.2143
   -22.2062 -22.2016 -14.2155 -13.2126  -7.2518  -6.2484  -4.3636  -4.0351
    -3.8890  -2.7830  -2.7126  -1.5593   0.5876   2.3418   2.7940   2.9261

          k = 0.0000 0.0692 0.0000 ( 31121 PWs)   bands (ev):

   -22.2611 -22.2543 -22.2541 -22.2479 -22.2430 -22.2200 -22.2178 -22.2141
   -22.2065 -22.2016 -14.1961 -13.2089  -7.3098  -6.3207  -4.3607  -4.0146
    -3.8386  -2.7918  -2.6023  -1.5733   0.6019   2.4192   2.7086   2.8015

          k = 0.0000 0.1384 0.0000 ( 31105 PWs)   bands (ev):

   -22.2597 -22.2549 -22.2532 -22.2494 -22.2415 -22.2203 -22.2178 -22.2134
   -22.2072 -22.2017 -14.1390 -13.1998  -7.4653  -6.5233  -4.3324  -3.9424
    -3.7066  -2.7530  -2.3678  -1.6197   0.6496   2.1997   2.4921   2.5695

          k = 0.0000 0.2076 0.0000 ( 31103 PWs)   bands (ev):

   -22.2577 -22.2561 -22.2517 -22.2511 -22.2395 -22.2209 -22.2177 -22.2123
   -22.2084 -22.2019 -14.0473 -13.1918  -7.6729  -6.8169  -4.2516  -3.8116
    -3.5213  -2.6759  -2.0629  -1.7044   0.7422   1.5559   2.0327   2.5203

          k = 0.0000 0.2768 0.0000 ( 31091 PWs)   bands (ev):

   -22.2574 -22.2563 -22.2521 -22.2502 -22.2372 -22.2218 -22.2175 -22.2109
   -22.2098 -22.2023 -13.9271 -13.1949  -7.8803  -7.1510  -4.1120  -3.6287
    -3.3106  -2.5892  -1.8158  -1.7218   0.8909   0.9148   1.5567   2.1437

          k = 0.0000 0.3460 0.0000 ( 31049 PWs)   bands (ev):

   -22.2585 -22.2569 -22.2512 -22.2488 -22.2345 -22.2231 -22.2170 -22.2113
   -22.2093 -22.2028 -13.7868 -13.2204  -8.0412  -7.4794  -3.9222  -3.4112
    -3.1225  -2.5312  -1.8996  -1.3841   0.3464   1.0928   1.1715   1.6266

          k = 0.0000 0.4152 0.0000 ( 31003 PWs)   bands (ev):

   -22.2593 -22.2581 -22.2496 -22.2480 -22.2318 -22.2248 -22.2163 -22.2128
   -22.2076 -22.2036 -13.6381 -13.2779  -8.1214  -7.7653  -3.6974  -3.2210
    -3.0108  -2.5451  -1.8477  -1.1701  -0.0082   0.9550   1.0115   1.4122

          k = 0.0000 0.4844 0.0000 ( 30998 PWs)   bands (ev):

   -22.2595 -22.2591 -22.2484 -22.2479 -22.2292 -22.2269 -22.2153 -22.2141
   -22.2060 -22.2047 -13.4946 -13.3708  -8.1019  -7.9797  -3.4618  -3.2613
    -2.8431  -2.6562  -1.6123  -1.3020   0.0921   0.5056   0.9496   1.1472

          k = 0.0667 0.0000 0.0000 ( 31120 PWs)   bands (ev):

   -22.2614 -22.2545 -22.2540 -22.2476 -22.2431 -22.2199 -22.2176 -22.2143
   -22.2063 -22.2018 -14.1983 -13.2121  -7.3166  -6.3292  -4.3589  -3.9633
    -3.8598  -2.6938  -2.6769  -1.5800   0.6013   2.3835   2.6219   2.9231

          k = 0.0667 0.0692 0.0000 ( 31110 PWs)   bands (ev):

   -22.2609 -22.2544 -22.2541 -22.2482 -22.2425 -22.2200 -22.2176 -22.2140
   -22.2066 -22.2018 -14.1790 -13.2082  -7.3650  -6.3929  -4.3507  -4.0747
    -3.6877  -2.8384  -2.4482  -1.5912   0.6171   2.3495   2.4502   2.8968

          k = 0.0667 0.1384 0.0000 ( 31136 PWs)   bands (ev):

   -22.2595 -22.2551 -22.2531 -22.2497 -22.2410 -22.2204 -22.2177 -22.2132
   -22.2074 -22.2019 -14.1222 -13.1988  -7.4980  -6.5743  -4.3147  -4.1408
    -3.4438  -2.8921  -2.1639  -1.6280   0.6682   1.7958   2.5300   2.7653

          k = 0.0667 0.2076 0.0000 ( 31115 PWs)   bands (ev):

   -22.2576 -22.2563 -22.2516 -22.2514 -22.2390 -22.2210 -22.2177 -22.2121
   -22.2085 -22.2020 -14.0312 -13.1903  -7.6821  -6.8439  -4.2321  -4.1115
    -3.1954  -2.8607  -1.8754  -1.6926   0.7632   1.2081   2.2454   2.3810

          k = 0.0667 0.2768 0.0000 ( 31086 PWs)   bands (ev):

   -22.2577 -22.2565 -22.2522 -22.2500 -22.2367 -22.2219 -22.2175 -22.2107
   -22.2099 -22.2023 -13.9119 -13.1925  -7.8716  -7.1580  -4.0953  -3.9909
    -2.9803  -2.7798  -1.7649  -1.6297   0.7058   0.9056   1.7092   1.9051

          k = 0.0667 0.3460 0.0000 ( 31069 PWs)   bands (ev):

   -22.2589 -22.2573 -22.2510 -22.2486 -22.2342 -22.2232 -22.2171 -22.2114
   -22.2091 -22.2028 -13.7730 -13.2166  -8.0215  -7.4720  -3.9106  -3.7964
    -2.8628  -2.7063  -1.7814  -1.4772   0.3758   0.9871   1.2885   1.4733

          k = 0.0667 0.4152 0.0000 ( 31033 PWs)   bands (ev):

   -22.2597 -22.2586 -22.2494 -22.2478 -22.2316 -22.2248 -22.2163 -22.2128
   -22.2075 -22.2035 -13.6260 -13.2723  -8.0964  -7.7482  -3.6940  -3.5617
    -2.8930  -2.7178  -1.6841  -1.4268   0.2275   0.6190   1.2261   1.4588

          k = 0.0667 0.4844 0.0000 ( 30999 PWs)   bands (ev):

   -22.2600 -22.2596 -22.2482 -22.2476 -22.2291 -22.2268 -22.2153 -22.2142
   -22.2059 -22.2046 -13.4846 -13.3630  -8.0762  -7.9566  -3.4800  -3.3901
    -2.9617  -2.8483  -1.5334  -1.4398   0.1874   0.3050   1.2825   1.5848

          k = 0.1333 0.0000 0.0000 ( 31138 PWs)   bands (ev):

   -22.2608 -22.2544 -22.2542 -22.2484 -22.2416 -22.2201 -22.2171 -22.2140
   -22.2065 -22.2024 -14.1476 -13.2122  -7.4845  -6.5486  -4.3256  -3.7735
    -3.7712  -2.6408  -2.3997  -1.6436   0.6479   2.1522   2.4571   2.6237

          k = 0.1333 0.0692 0.0000 ( 31133 PWs)   bands (ev):

   -22.2603 -22.2547 -22.2538 -22.2491 -22.2410 -22.2202 -22.2172 -22.2137
   -22.2069 -22.2023 -14.1286 -13.2081  -7.5114  -6.5919  -4.3094  -4.0905
    -3.4191  -2.8456  -2.1525  -1.6447   0.6673   1.8028   2.4621   2.8176

          k = 0.1333 0.1384 0.0000 ( 31150 PWs)   bands (ev):

   -22.2590 -22.2557 -22.2527 -22.2506 -22.2395 -22.2205 -22.2175 -22.2128
   -22.2077 -22.2023 -14.0729 -13.1978  -7.5904  -6.7207  -4.3246  -4.2602
    -3.0825  -3.0443  -1.8445  -1.6466   0.7258   1.2750   2.2454   2.9337

          k = 0.1333 0.2076 0.0000 ( 31120 PWs)   bands (ev):

   -22.2574 -22.2570 -22.2520 -22.2511 -22.2376 -22.2211 -22.2177 -22.2116
   -22.2089 -22.2023 -13.9838 -13.1875  -7.7113  -6.9259  -4.4401  -4.1747
    -3.1307  -2.8171  -1.6511  -1.6378   0.8191   0.8503   1.7222   2.7777

          k = 0.1333 0.2768 0.0000 ( 31095 PWs)   bands (ev):

   -22.2585 -22.2572 -22.2521 -22.2495 -22.2354 -22.2220 -22.2176 -22.2103
   -22.2101 -22.2024 -13.8675 -13.1868  -7.8486  -7.1822  -4.4264  -4.0481
    -3.1170  -2.6835  -1.6667  -1.5924   0.6702   0.8652   1.2735   2.4141

          k = 0.1333 0.3460 0.0000 ( 31096 PWs)   bands (ev):

   -22.2599 -22.2585 -22.2504 -22.2480 -22.2332 -22.2233 -22.2172 -22.2117
   -22.2086 -22.2028 -13.7326 -13.2067  -7.9646  -7.4527  -4.2949  -3.8817
    -3.0671  -2.7110  -1.8414  -1.5203   0.5876   0.7248   1.3186   2.0136

          k = 0.1333 0.4152 0.0000 ( 31064 PWs)   bands (ev):

   -22.2608 -22.2599 -22.2487 -22.2471 -22.2309 -22.2248 -22.2164 -22.2130
   -22.2070 -22.2034 -13.5908 -13.2568  -8.0230  -7.6990  -4.0713  -3.6960
    -3.0967  -2.8587  -1.9523  -1.5198   0.3813   0.7957   1.5680   1.7737

          k = 0.1333 0.4844 0.0000 ( 31010 PWs)   bands (ev):

   -22.2612 -22.2609 -22.2475 -22.2469 -22.2287 -22.2267 -22.2155 -22.2143
   -22.2056 -22.2044 -13.4558 -13.3410  -8.0000  -7.8889  -3.7988  -3.6042
    -3.1829  -3.0563  -1.8581  -1.6609   0.4316   0.6453   1.8632   1.8856

          k = 0.2000 0.0000 0.0000 ( 31122 PWs)   bands (ev):

   -22.2599 -22.2549 -22.2538 -22.2497 -22.2392 -22.2204 -22.2163 -22.2136
   -22.2070 -22.2033 -14.0661 -13.2182  -7.6984  -6.8528  -4.2402  -3.6334
    -3.5096  -2.5646  -2.0251  -1.7473   0.7406   1.5687   2.1470   2.4057

          k = 0.2000 0.0692 0.0000 ( 31148 PWs)   bands (ev):

   -22.2594 -22.2553 -22.2534 -22.2503 -22.2386 -22.2205 -22.2166 -22.2132
   -22.2074 -22.2032 -14.0477 -13.2135  -7.7035  -6.8740  -4.2208  -4.0180
    -3.1282  -2.7922  -1.8148  -1.7253   0.7631   1.2445   2.2139   2.4502

          k = 0.2000 0.1384 0.0000 ( 31140 PWs)   bands (ev):

   -22.2583 -22.2564 -22.2522 -22.2517 -22.2373 -22.2209 -22.2171 -22.2121
   -22.2083 -22.2029 -13.9939 -13.2015  -7.7224  -6.9415  -4.3943  -4.1655
    -3.1079  -2.7799  -1.6462  -1.6007   0.8222   0.8760   1.7316   2.8106

          k = 0.2000 0.2076 0.0000 ( 31132 PWs)   bands (ev):

   -22.2580 -22.2574 -22.2526 -22.2505 -22.2356 -22.2214 -22.2175 -22.2108
   -22.2095 -22.2027 -13.9082 -13.1880  -7.7616  -7.0616  -4.6562  -4.0827
    -3.3242  -2.5998  -1.6672  -1.5023   0.7994   0.8378   1.2928   2.9598

          k = 0.2000 0.2768 0.0000 ( 31121 PWs)   bands (ev):

   -22.2597 -22.2584 -22.2515 -22.2488 -22.2337 -22.2223 -22.2175 -22.2108
   -22.2094 -22.2027 -13.7970 -13.1822  -7.8195  -7.2311  -4.7707  -3.9803
    -3.4113  -2.5939  -1.9866  -1.3826   0.6053   1.0110   1.2876   2.7591

          k = 0.2000 0.3460 0.0000 ( 31115 PWs)   bands (ev):

   -22.2613 -22.2602 -22.2495 -22.2473 -22.2317 -22.2235 -22.2172 -22.2121
   -22.2079 -22.2029 -13.6691 -13.1949  -7.8779  -7.4295  -4.7327  -3.8567
    -3.4306  -2.7100  -2.3344  -1.4447   0.4893   1.3289   1.4942   2.4410

          k = 0.2000 0.4152 0.0000 ( 31067 PWs)   bands (ev):

   -22.2625 -22.2618 -22.2477 -22.2463 -22.2299 -22.2249 -22.2165 -22.2133
   -22.2065 -22.2033 -13.5363 -13.2355  -7.9062  -7.6238  -4.5608  -3.7649
    -3.4866  -2.9026  -2.4684  -1.7061   0.6374   1.5022   1.7646   2.2431

          k = 0.2000 0.4844 0.0000 ( 31076 PWs)   bands (ev):

   -22.2630 -22.2628 -22.2465 -22.2460 -22.2282 -22.2265 -22.2155 -22.2144
   -22.2051 -22.2041 -13.4119 -13.3086  -7.8775  -7.7809  -4.2884  -3.9692
    -3.3650  -3.1350  -2.3251  -2.0364   0.9393   1.2854   2.0566   2.2670

          k = 0.2667 0.0000 0.0000 ( 31132 PWs)   bands (ev):

   -22.2587 -22.2555 -22.2535 -22.2512 -22.2362 -22.2210 -22.2153 -22.2130
   -22.2076 -22.2044 -13.9587 -13.2377  -7.9023  -7.1864  -4.0998  -3.4462
    -3.2380  -2.4858  -1.8649  -1.6097   0.8910   0.9696   1.6932   2.1143

          k = 0.2667 0.0692 0.0000 ( 31163 PWs)   bands (ev):

   -22.2584 -22.2560 -22.2530 -22.2517 -22.2358 -22.2211 -22.2157 -22.2124
   -22.2081 -22.2042 -13.9413 -13.2321  -7.8912  -7.1895  -4.0810  -3.8683
    -2.8858  -2.7117  -1.7909  -1.4978   0.7665   0.9116   1.7354   2.0113

          k = 0.2667 0.1384 0.0000 ( 31143 PWs)   bands (ev):

   -22.2576 -22.2573 -22.2527 -22.2517 -22.2347 -22.2214 -22.2165 -22.2113
   -22.2091 -22.2037 -13.8903 -13.2172  -7.8618  -7.2035  -4.3479  -4.0286
    -3.1009  -2.6386  -1.5702  -1.5418   0.7250   0.9002   1.2834   2.4744

          k = 0.2667 0.2076 0.0000 ( 31140 PWs)   bands (ev):

   -22.2590 -22.2581 -22.2525 -22.2500 -22.2332 -22.2219 -22.2171 -22.2103
   -22.2099 -22.2033 -13.8097 -13.1987  -7.8248  -7.2399  -4.7360  -3.9591
    -3.4288  -2.5841  -1.9137  -1.3527   0.6380   1.0528   1.2882   2.7702

          k = 0.2667 0.2768 0.0000 ( 31158 PWs)   bands (ev):

   -22.2611 -22.2600 -22.2506 -22.2481 -22.2317 -22.2228 -22.2173 -22.2114
   -22.2085 -22.2030 -13.7058 -13.1853  -7.7938  -7.3101  -4.9832  -3.9091
    -3.6181  -2.6514  -2.3910  -1.3926   0.5672   1.4946   1.5405   2.7680

          k = 0.2667 0.3460 0.0000 ( 31124 PWs)   bands (ev):

   -22.2629 -22.2622 -22.2484 -22.2465 -22.2302 -22.2239 -22.2170 -22.2125
   -22.2071 -22.2030 -13.5882 -13.1873  -7.7748  -7.4139  -5.0615  -3.8787
    -3.7418  -2.8073  -2.7427  -1.6858   0.7815   1.7702   2.0213   2.5848

          k = 0.2667 0.4152 0.0000 ( 31094 PWs)   bands (ev):

   -22.2643 -22.2639 -22.2466 -22.2453 -22.2289 -22.2251 -22.2163 -22.2135
   -22.2058 -22.2032 -13.4683 -13.2143  -7.7567  -7.5334  -4.9712  -4.0363
    -3.7582  -3.0357  -2.7955  -2.0439   1.1141   2.0826   2.1537   2.5570

          k = 0.2667 0.4844 0.0000 ( 31105 PWs)   bands (ev):

   -22.2650 -22.2649 -22.2454 -22.2450 -22.2276 -22.2264 -22.2154 -22.2145
   -22.2047 -22.2038 -13.3590 -13.2719  -7.7172  -7.6415  -4.7384  -4.4046
    -3.5632  -3.3048  -2.6322  -2.3692   1.4784   1.8421   2.3917   2.6125

          k = 0.3333 0.0000 0.0000 ( 31168 PWs)   bands (ev):

   -22.2575 -22.2559 -22.2534 -22.2528 -22.2331 -22.2219 -22.2141 -22.2122
   -22.2084 -22.2057 -13.8326 -13.2787  -8.0538  -7.5059  -3.9119  -3.2229
    -3.0460  -2.4365  -1.9139  -1.2044   0.4238   1.1027   1.3394   1.6625

          k = 0.3333 0.0692 0.0000 ( 31174 PWs)   bands (ev):

   -22.2573 -22.2565 -22.2531 -22.2529 -22.2327 -22.2220 -22.2147 -22.2115
   -22.2090 -22.2053 -13.8165 -13.2718  -8.0327  -7.4960  -3.8960  -3.6605
    -2.7938  -2.6537  -1.7469  -1.2671   0.4441   1.0647   1.2841   1.6235

          k = 0.3333 0.1384 0.0000 ( 31140 PWs)   bands (ev):

   -22.2580 -22.2574 -22.2533 -22.2515 -22.2318 -22.2222 -22.2157 -22.2102
   -22.2100 -22.2046 -13.7694 -13.2529  -7.9720  -7.4696  -4.2018  -3.8534
    -3.0848  -2.6909  -1.6370  -1.4328   0.6759   0.8087   1.3052   2.1066

          k = 0.3333 0.2076 0.0000 ( 31142 PWs)   bands (ev):

   -22.2600 -22.2592 -22.2518 -22.2496 -22.2307 -22.2227 -22.2164 -22.2111
   -22.2089 -22.2040 -13.6955 -13.2274  -7.8805  -7.4374  -4.6820  -3.8080
    -3.5023  -2.7036  -2.1820  -1.3747   0.5623   1.4266   1.4992   2.4539

          k = 0.3333 0.2768 0.0000 ( 31143 PWs)   bands (ev):

   -22.2623 -22.2616 -22.2496 -22.2476 -22.2297 -22.2234 -22.2167 -22.2121
   -22.2076 -22.2035 -13.6016 -13.2035  -7.7739  -7.4148  -5.0446  -3.8862
    -3.7496  -2.7996  -2.6733  -1.6588   0.8218   1.7873   2.0978   2.5750

          k = 0.3333 0.3460 0.0000 ( 31125 PWs)   bands (ev):

   -22.2645 -22.2640 -22.2474 -22.2458 -22.2287 -22.2243 -22.2165 -22.2130
   -22.2063 -22.2032 -13.4974 -13.1914  -7.6730  -7.4157  -5.2470  -4.0969
    -3.9105  -2.9944  -2.9102  -2.0183   1.1875   2.1502   2.5195   2.7304

          k = 0.3333 0.4152 0.0000 ( 31152 PWs)   bands (ev):

   -22.2661 -22.2658 -22.2456 -22.2446 -22.2279 -22.2254 -22.2159 -22.2137
   -22.2051 -22.2032 -13.3943 -13.2008  -7.5942  -7.4429  -5.2642  -4.4217
    -3.9758  -3.2818  -2.8786  -2.3114   1.5381   2.3722   2.5373   3.1309

          k = 0.3333 0.4844 0.0000 ( 31116 PWs)   bands (ev):

   -22.2670 -22.2669 -22.2444 -22.2441 -22.2272 -22.2263 -22.2152 -22.2144
   -22.2042 -22.2036 -13.3046 -13.2382  -7.5360  -7.4865  -5.1031  -4.8016
    -3.8454  -3.5927  -2.7320  -2.5403   1.8568   2.1399   2.8851   3.1265

          k = 0.4000 0.0000 0.0000 ( 31170 PWs)   bands (ev):

   -22.2562 -22.2561 -22.2542 -22.2536 -22.2300 -22.2232 -22.2129 -22.2112
   -22.2094 -22.2071 -13.6972 -13.3471  -8.1251  -7.7797  -3.6884  -3.0453
    -2.9812  -2.4539  -1.7739  -0.9450   0.0799   1.1440   1.1456   1.3852

          k = 0.4000 0.0692 0.0000 ( 31161 PWs)   bands (ev):

   -22.2568 -22.2564 -22.2541 -22.2530 -22.2297 -22.2232 -22.2136 -22.2104
   -22.2100 -22.2066 -13.6827 -13.3385  -8.0991  -7.7608  -3.6779  -3.4270
    -2.8782  -2.6780  -1.5601  -1.1667   0.2999   0.7442   1.4094   1.4249

          k = 0.4000 0.1384 0.0000 ( 31156 PWs)   bands (ev):

   -22.2585 -22.2578 -22.2530 -22.2515 -22.2292 -22.2233 -22.2147 -22.2111
   -22.2091 -22.2057 -13.6405 -13.3144  -8.0228  -7.7066  -3.9803  -3.6558
    -3.1447  -2.8634  -1.7000  -1.3700   0.4941   0.9021   1.5492   1.8878

          k = 0.4000 0.2076 0.0000 ( 31153 PWs)   bands (ev):

   -22.2608 -22.2602 -22.2510 -22.2495 -22.2285 -22.2236 -22.2155 -22.2121
   -22.2078 -22.2048 -13.5751 -13.2798  -7.9024  -7.6248  -4.5142  -3.7318
    -3.5495  -2.8967  -2.2796  -1.6038   0.7462   1.6496   1.7766   2.2498

          k = 0.4000 0.2768 0.0000 ( 31134 PWs)   bands (ev):

   -22.2633 -22.2629 -22.2487 -22.2474 -22.2279 -22.2242 -22.2159 -22.2129
   -22.2066 -22.2041 -13.4937 -13.2429  -7.7501  -7.5290  -4.9584  -4.1234
    -3.6654  -3.0090  -2.7163  -2.0027   1.1807   2.1340   2.2344   2.6321

          k = 0.4000 0.3460 0.0000 ( 31136 PWs)   bands (ev):

   -22.2656 -22.2654 -22.2465 -22.2455 -22.2275 -22.2249 -22.2158 -22.2135
   -22.2055 -22.2036 -13.4060 -13.2135  -7.5882  -7.4377  -5.2681  -4.4872
    -3.8898  -3.2538  -2.8684  -2.3067   1.5574   2.3760   2.5894   3.3040

          k = 0.4000 0.4152 0.0000 ( 31145 PWs)   bands (ev):

   -22.2675 -22.2673 -22.2448 -22.2441 -22.2272 -22.2257 -22.2154 -22.2139
   -22.2045 -22.2034 -13.3234 -13.2018  -7.4499  -7.3705  -5.4047  -4.8201
    -4.0833  -3.5887  -2.8295  -2.4847   1.8585   2.3710   3.0269   3.6087

          k = 0.4000 0.4844 0.0000 ( 31117 PWs)   bands (ev):

   -22.2684 -22.2684 -22.2437 -22.2435 -22.2268 -22.2263 -22.2148 -22.2143
   -22.2038 -22.2034 -13.2570 -13.2154  -7.3656  -7.3426  -5.3497  -5.1309
    -4.0812  -3.8946  -2.7286  -2.6123   2.0987   2.2736   3.3623   3.5681

          k = 0.4667 0.0000 0.0000 ( 31144 PWs)   bands (ev):

   -22.2559 -22.2552 -22.2551 -22.2542 -22.2272 -22.2250 -22.2117 -22.2105
   -22.2099 -22.2085 -13.5637 -13.4438  -8.1022  -7.9840  -3.4459  -3.2123
    -2.7485  -2.5613  -1.4601  -1.1002   0.2189   0.6469   1.1455   1.3331

          k = 0.4667 0.0692 0.0000 ( 31154 PWs)   bands (ev):

   -22.2567 -22.2564 -22.2540 -22.2534 -22.2271 -22.2249 -22.2124 -22.2112
   -22.2092 -22.2079 -13.5511 -13.4332  -8.0754  -7.9597  -3.4490  -3.2944
    -2.9550  -2.8100  -1.3372  -1.1906   0.2862   0.4294   1.4645   1.6676

          k = 0.4667 0.1384 0.0000 ( 31154 PWs)   bands (ev):

   -22.2586 -22.2583 -22.2524 -22.2519 -22.2268 -22.2249 -22.2135 -22.2123
   -22.2079 -22.2068 -13.5147 -13.4030  -7.9963  -7.8882  -3.7208  -3.5363
    -3.2337  -3.0800  -1.6196  -1.4622   0.5578   0.7689   1.8308   1.9511

          k = 0.4667 0.2076 0.0000 ( 31155 PWs)   bands (ev):

   -22.2611 -22.2608 -22.2503 -22.2498 -22.2265 -22.2249 -22.2144 -22.2132
   -22.2068 -22.2057 -13.4593 -13.3582  -7.8698  -7.7751  -4.2624  -3.9705
    -3.3583  -3.1249  -2.1602  -1.9042   1.0686   1.4248   2.0712   2.2767

          k = 0.4667 0.2768 0.0000 ( 31133 PWs)   bands (ev):

   -22.2637 -22.2636 -22.2480 -22.2476 -22.2264 -22.2252 -22.2149 -22.2138
   -22.2057 -22.2048 -13.3922 -13.3064  -7.7061  -7.6313  -4.7482  -4.4509
    -3.4810  -3.2491  -2.5715  -2.3204   1.5508   1.9094   2.4834   2.7383

          k = 0.4667 0.3460 0.0000 ( 31121 PWs)   bands (ev):

   -22.2663 -22.2662 -22.2459 -22.2455 -22.2264 -22.2256 -22.2149 -22.2141
   -22.2047 -22.2041 -13.3234 -13.2577  -7.5243  -7.4753  -5.1276  -4.8527
    -3.7561  -3.5291  -2.7278  -2.5382   1.8768   2.1523   2.9961   3.2912

          k = 0.4667 0.4152 0.0000 ( 31152 PWs)   bands (ev):

   -22.2682 -22.2681 -22.2442 -22.2440 -22.2266 -22.2261 -22.2148 -22.2142
   -22.2040 -22.2036 -13.2639 -13.2224  -7.3587  -7.3358  -5.3668  -5.1571
    -4.0411  -3.8635  -2.7315  -2.6156   2.1026   2.2759   3.4094   3.6300

          k = 0.4667 0.4844 0.0000 ( 31125 PWs)   bands (ev):

   -22.2692 -22.2692 -22.2433 -22.2432 -22.2266 -22.2264 -22.2145 -22.2143
   -22.2036 -22.2034 -13.2237 -13.2095  -7.2561  -7.2509  -5.4426  -5.3608
    -4.1772  -4.1082  -2.6942  -2.6551   2.2489   2.3080   3.6571   3.7539

     the Fermi energy is    -0.8706 ev

!    total energy              =    -413.80375952 Ry
     estimated scf accuracy    <          4.4E-12 Ry
     smearing contrib. (-TS)   =       0.00007580 Ry
     internal energy E=F+TS    =    -413.80383532 Ry

     The total energy is F=E-TS. E is the sum of the following terms:
     one-electron contribution =   -1175.23199122 Ry
[...]
   -22.1990 -22.1944 -14.2018 -13.2279  -7.3752  -6.3762  -4.3739  -4.0774
    -3.7012  -2.8471  -2.4549  -1.5780   0.6099   2.3265   2.3568   2.8854

          k = 0.0667 0.1384 0.0000 ( 31136 PWs)   bands (ev):

   -22.2524 -22.2482 -22.2451 -22.2428 -22.2348 -22.2146 -22.2100 -22.2056
   -22.1998 -22.1944 -14.1445 -13.2180  -7.5107  -6.5628  -4.3379  -4.1463
    -3.4563  -2.8981  -2.1745  -1.6148   0.6609   1.8018   2.4608   2.7488

          k = 0.0667 0.2076 0.0000 ( 31115 PWs)   bands (ev):

   -22.2507 -22.2495 -22.2442 -22.2436 -22.2330 -22.2152 -22.2100 -22.2044
   -22.2010 -22.1945 -14.0527 -13.2086  -7.6978  -6.8393  -4.2543  -4.1189
    -3.2094  -2.8673  -1.8897  -1.6800   0.7560   1.2311   2.2413   2.3853

          k = 0.0667 0.2768 0.0000 ( 31086 PWs)   bands (ev):

   -22.2509 -22.2501 -22.2444 -22.2420 -22.2308 -22.2162 -22.2098 -22.2030
   -22.2024 -22.1947 -13.9324 -13.2098  -7.8902  -7.1605  -4.1162  -4.0007
    -2.9962  -2.7905  -1.7542  -1.6478   0.7411   0.8986   1.7354   1.9271

          k = 0.0667 0.3460 0.0000 ( 31069 PWs)   bands (ev):

   -22.2522 -22.2510 -22.2430 -22.2406 -22.2283 -22.2175 -22.2094 -22.2039
   -22.2014 -22.1952 -13.7923 -13.2332  -8.0421  -7.4809  -3.9302  -3.8101
    -2.8787  -2.7237  -1.7763  -1.4959   0.4169   0.9959   1.3125   1.5100

          k = 0.0667 0.4152 0.0000 ( 31033 PWs)   bands (ev):

   -22.2531 -22.2523 -22.2414 -22.2398 -22.2258 -22.2191 -22.2087 -22.2054
   -22.1997 -22.1958 -13.6441 -13.2885  -8.1177  -7.7623  -3.7131  -3.5810
    -2.9052  -2.7403  -1.6884  -1.4417   0.2675   0.6581   1.2744   1.4615

          k = 0.0667 0.4844 0.0000 ( 30999 PWs)   bands (ev):

   -22.2535 -22.2532 -22.2402 -22.2396 -22.2234 -22.2211 -22.2078 -22.2067
   -22.1981 -22.1968 -13.5017 -13.3794  -8.0966  -7.9747  -3.5006  -3.4145
    -2.9727  -2.8681  -1.5454  -1.4537   0.2302   0.3501   1.3318   1.6260

          k = 0.1333 0.0000 0.0000 ( 31138 PWs)   bands (ev):

   -22.2537 -22.2474 -22.2463 -22.2416 -22.2354 -22.2143 -22.2094 -22.2064
   -22.1990 -22.1950 -14.1706 -13.2327  -7.4898  -6.5315  -4.3429  -3.8072
    -3.7589  -2.6783  -2.3855  -1.6331   0.6438   2.1096   2.3609   2.6406

          k = 0.1333 0.0692 0.0000 ( 31133 PWs)   bands (ev):

   -22.2532 -22.2477 -22.2459 -22.2422 -22.2348 -22.2144 -22.2095 -22.2061
   -22.1993 -22.1950 -14.1515 -13.2284  -7.5178  -6.5762  -4.3276  -4.1010
    -3.4302  -2.8649  -2.1562  -1.6341   0.6630   1.7919   2.3744   2.8076

          k = 0.1333 0.1384 0.0000 ( 31150 PWs)   bands (ev):

   -22.2520 -22.2487 -22.2448 -22.2436 -22.2334 -22.2147 -22.2098 -22.2052
   -22.2002 -22.1948 -14.0953 -13.2174  -7.5999  -6.7094  -4.3336  -4.2806
    -3.0961  -3.0563  -1.8560  -1.6360   0.7211   1.2888   2.2143   2.9149

          k = 0.1333 0.2076 0.0000 ( 31120 PWs)   bands (ev):

   -22.2507 -22.2501 -22.2447 -22.2432 -22.2316 -22.2154 -22.2099 -22.2040
   -22.2014 -22.1948 -14.0055 -13.2062  -7.7251  -6.9209  -4.4478  -4.1970
    -3.1386  -2.8332  -1.6684  -1.6290   0.8138   0.8820   1.7376   2.7704

          k = 0.1333 0.2768 0.0000 ( 31095 PWs)   bands (ev):

   -22.2517 -22.2508 -22.2442 -22.2415 -22.2295 -22.2163 -22.2099 -22.2028
   -22.2025 -22.1949 -13.8881 -13.2045  -7.8664  -7.1846  -4.4333  -4.0710
    -3.1240  -2.7002  -1.6836  -1.5898   0.7106   0.8684   1.3000   2.4211

          k = 0.1333 0.3460 0.0000 ( 31096 PWs)   bands (ev):

   -22.2532 -22.2521 -22.2425 -22.2401 -22.2273 -22.2175 -22.2095 -22.2042
   -22.2009 -22.1952 -13.7521 -13.2236  -7.9854  -7.4619  -4.3024  -3.9041
    -3.0775  -2.7259  -1.8490  -1.5272   0.6222   0.7629   1.3259   2.0321

          k = 0.1333 0.4152 0.0000 ( 31064 PWs)   bands (ev):

   -22.2542 -22.2535 -22.2408 -22.2392 -22.2251 -22.2191 -22.2088 -22.2055
   -22.1993 -22.1958 -13.6091 -13.2733  -8.0452  -7.7139  -4.0809  -3.7177
    -3.1108  -2.8723  -1.9507  -1.5316   0.4241   0.8261   1.5722   1.8036

          k = 0.1333 0.4844 0.0000 ( 31010 PWs)   bands (ev):

   -22.2547 -22.2544 -22.2395 -22.2390 -22.2229 -22.2209 -22.2079 -22.2068
   -22.1979 -22.1966 -13.4730 -13.3576  -8.0217  -7.9081  -3.8128  -3.6247
    -3.1949  -3.0693  -1.8578  -1.6678   0.4698   0.6758   1.8689   1.9162

          k = 0.2000 0.0000 0.0000 ( 31122 PWs)   bands (ev):

   -22.2528 -22.2479 -22.2460 -22.2428 -22.2329 -22.2146 -22.2086 -22.2060
   -22.1994 -22.1959 -14.0894 -13.2396  -7.6991  -6.8369  -4.2525  -3.6689
    -3.5026  -2.6055  -2.0171  -1.7405   0.7405   1.5379   2.1703   2.3243

          k = 0.2000 0.0692 0.0000 ( 31148 PWs)   bands (ev):

   -22.2524 -22.2483 -22.2455 -22.2434 -22.2324 -22.2147 -22.2089 -22.2056
   -22.1998 -22.1958 -14.0709 -13.2347  -7.7054  -6.8593  -4.2340  -4.0345
    -3.1402  -2.8213  -1.8187  -1.7186   0.7629   1.2408   2.1657   2.4508

          k = 0.2000 0.1384 0.0000 ( 31140 PWs)   bands (ev):

   -22.2514 -22.2495 -22.2445 -22.2443 -22.2311 -22.2150 -22.2094 -22.2045
   -22.2008 -22.1955 -14.0166 -13.2219  -7.7277  -6.9302  -4.4073  -4.1820
    -3.1284  -2.7945  -1.6411  -1.6121   0.8215   0.8942   1.7294   2.8018

          k = 0.2000 0.2076 0.0000 ( 31132 PWs)   bands (ev):

   -22.2511 -22.2509 -22.2450 -22.2427 -22.2295 -22.2156 -22.2097 -22.2032
   -22.2020 -22.1952 -13.9302 -13.2075  -7.7720  -7.0562  -4.6658  -4.1044
    -3.3370  -2.6144  -1.6783  -1.5028   0.8298   0.8415   1.3109   2.9492

          k = 0.2000 0.2768 0.0000 ( 31121 PWs)   bands (ev):

   -22.2529 -22.2521 -22.2437 -22.2409 -22.2277 -22.2165 -22.2098 -22.2033
   -22.2018 -22.1951 -13.8178 -13.2006  -7.8358  -7.2332  -4.7769  -4.0068
    -3.4181  -2.6077  -1.9894  -1.3902   0.6308   1.0438   1.2978   2.7543

          k = 0.2000 0.3460 0.0000 ( 31115 PWs)   bands (ev):

   -22.2546 -22.2538 -22.2417 -22.2394 -22.2259 -22.2177 -22.2095 -22.2046
   -22.2003 -22.1953 -13.6888 -13.2123  -7.8991  -7.4393  -4.7364  -3.8841
    -3.4381  -2.7244  -2.3255  -1.4521   0.5204   1.3592   1.5017   2.4420

          k = 0.2000 0.4152 0.0000 ( 31067 PWs)   bands (ev):

   -22.2558 -22.2553 -22.2399 -22.2384 -22.2240 -22.2191 -22.2089 -22.2058
   -22.1988 -22.1957 -13.5548 -13.2523  -7.9300  -7.6402  -4.5637  -3.7850
    -3.5018  -2.9192  -2.4515  -1.7052   0.6624   1.5224   1.7723   2.2550

          k = 0.2000 0.4844 0.0000 ( 31076 PWs)   bands (ev):

   -22.2564 -22.2563 -22.2386 -22.2381 -22.2223 -22.2206 -22.2080 -22.2069
   -22.1975 -22.1964 -13.4294 -13.3255  -7.9013  -7.8022  -4.2927  -3.9776
    -3.3863  -3.1543  -2.3098  -2.0270   0.9572   1.2995   2.0657   2.2797

          k = 0.2667 0.0000 0.0000 ( 31132 PWs)   bands (ev):

   -22.2517 -22.2485 -22.2458 -22.2443 -22.2299 -22.2150 -22.2076 -22.2054
   -22.2001 -22.1970 -13.9825 -13.2601  -7.8987  -7.1712  -4.1084  -3.4842
    -3.2357  -2.5313  -1.8626  -1.6082   0.8952   0.9477   1.7236   2.0603

          k = 0.2667 0.0692 0.0000 ( 31163 PWs)   bands (ev):

   -22.2514 -22.2490 -22.2453 -22.2447 -22.2295 -22.2151 -22.2081 -22.2049
   -22.2005 -22.1968 -13.9649 -13.2542  -7.8887  -7.1753  -4.0904  -3.8900
    -2.8987  -2.7507  -1.7900  -1.5019   0.7653   0.9162   1.7190   2.0231

          k = 0.2667 0.1384 0.0000 ( 31143 PWs)   bands (ev):

   -22.2509 -22.2503 -22.2455 -22.2440 -22.2285 -22.2155 -22.2088 -22.2037
   -22.2015 -22.1963 -13.9134 -13.2387  -7.8626  -7.1922  -4.3655  -4.0411
    -3.1331  -2.6509  -1.5743  -1.5455   0.7387   0.9083   1.2877   2.4756

          k = 0.2667 0.2076 0.0000 ( 31140 PWs)   bands (ev):

   -22.2522 -22.2516 -22.2449 -22.2422 -22.2271 -22.2160 -22.2093 -22.2027
   -22.2024 -22.1958 -13.8319 -13.2191  -7.8312  -7.2340  -4.7491  -3.9790
    -3.4518  -2.5954  -1.9089  -1.3618   0.6583   1.0724   1.2947   2.7714

          k = 0.2667 0.2768 0.0000 ( 31158 PWs)   bands (ev):

   -22.2542 -22.2536 -22.2430 -22.2403 -22.2256 -22.2168 -22.2095 -22.2039
   -22.2009 -22.1955 -13.7270 -13.2045  -7.8076  -7.3118  -4.9907  -3.9410
    -3.6283  -2.6640  -2.3757  -1.3977   0.5883   1.5028   1.5633   2.7656

          k = 0.2667 0.3460 0.0000 ( 31124 PWs)   bands (ev):

   -22.2562 -22.2557 -22.2408 -22.2387 -22.2242 -22.2179 -22.2093 -22.2050
   -22.1995 -22.1954 -13.6080 -13.2054  -7.7959  -7.4244  -5.0632  -3.9120
    -3.7497  -2.8235  -2.7177  -1.6800   0.7939   1.7807   2.0444   2.5794

          k = 0.2667 0.4152 0.0000 ( 31094 PWs)   bands (ev):

   -22.2577 -22.2574 -22.2389 -22.2376 -22.2229 -22.2191 -22.2087 -22.2060
   -22.1982 -22.1956 -13.4869 -13.2317  -7.7827  -7.5520  -4.9687  -4.0385
    -3.7896  -3.0563  -2.7689  -2.0288   1.1175   2.0957   2.1514   2.5747

          k = 0.2667 0.4844 0.0000 ( 31105 PWs)   bands (ev):

   -22.2584 -22.2583 -22.2377 -22.2372 -22.2216 -22.2204 -22.2079 -22.2070
   -22.1970 -22.1962 -13.3767 -13.2891  -7.7445  -7.6661  -4.7344  -4.4022
    -3.5909  -3.3291  -2.6082  -2.3484   1.4753   1.8356   2.4077   2.6315

          k = 0.3333 0.0000 0.0000 ( 31168 PWs)   bands (ev):

   -22.2504 -22.2489 -22.2458 -22.2458 -22.2267 -22.2159 -22.2065 -22.2047
   -22.2009 -22.1983 -13.8568 -13.3021  -8.0465  -7.4912  -3.9181  -3.2644
    -3.0464  -2.4867  -1.9172  -1.2112   0.4106   1.1113   1.3768   1.6294

          k = 0.3333 0.0692 0.0000 ( 31174 PWs)   bands (ev):

   -22.2503 -22.2495 -22.2461 -22.2453 -22.2264 -22.2159 -22.2071 -22.2040
   -22.2014 -22.1979 -13.8405 -13.2949  -8.0264  -7.4821  -3.9027  -3.6866
    -2.8057  -2.7020  -1.7540  -1.2688   0.4385   1.0775   1.2766   1.6481

          k = 0.3333 0.1384 0.0000 ( 31140 PWs)   bands (ev):

   -22.2511 -22.2507 -22.2459 -22.2439 -22.2256 -22.2162 -22.2080 -22.2027
   -22.2025 -22.1972 -13.7928 -13.2753  -7.9688  -7.4584  -4.2242  -3.8621
    -3.1303  -2.7007  -1.6261  -1.4443   0.6928   0.8074   1.3074   2.1189

          k = 0.3333 0.2076 0.0000 ( 31142 PWs)   bands (ev):

   -22.2532 -22.2526 -22.2444 -22.2420 -22.2246 -22.2166 -22.2087 -22.2036
   -22.2014 -22.1965 -13.7180 -13.2486  -7.8829  -7.4312  -4.6998  -3.8249
    -3.5393  -2.7138  -2.1598  -1.3811   0.5791   1.4306   1.5037   2.4605

          k = 0.3333 0.2768 0.0000 ( 31143 PWs)   bands (ev):

   -22.2555 -22.2550 -22.2421 -22.2400 -22.2235 -22.2173 -22.2090 -22.2047
   -22.2000 -22.1960 -13.6230 -13.2235  -7.7844  -7.4162  -5.0553  -3.9321
    -3.7551  -2.8130  -2.6428  -1.6526   0.8291   1.7950   2.1080   2.5764

          k = 0.3333 0.3460 0.0000 ( 31125 PWs)   bands (ev):

   -22.2577 -22.2574 -22.2399 -22.2382 -22.2226 -22.2182 -22.2089 -22.2055
   -22.1987 -22.1957 -13.5175 -13.2101  -7.6933  -7.4270  -5.2485  -4.1268
    -3.9200  -3.0123  -2.8802  -2.0017   1.1845   2.1615   2.5093   2.7502

          k = 0.3333 0.4152 0.0000 ( 31152 PWs)   bands (ev):

   -22.2594 -22.2593 -22.2380 -22.2370 -22.2218 -22.2192 -22.2084 -22.2063
   -22.1975 -22.1957 -13.4132 -13.2187  -7.6228  -7.4645  -5.2570  -4.4187
    -4.0021  -3.3024  -2.8537  -2.2901   1.5262   2.3553   2.5512   3.1528

          k = 0.3333 0.4844 0.0000 ( 31116 PWs)   bands (ev):

   -22.2603 -22.2603 -22.2369 -22.2365 -22.2210 -22.2201 -22.2077 -22.2070
   -22.1966 -22.1960 -13.3225 -13.2558  -7.5681  -7.5158  -5.0909  -4.7898
    -3.8703  -3.6150  -2.7094  -2.5181   1.8389   2.1200   2.9014   3.1458

          k = 0.4000 0.0000 0.0000 ( 31170 PWs)   bands (ev):

   -22.2491 -22.2491 -22.2472 -22.2462 -22.2237 -22.2171 -22.2053 -22.2036
   -22.2019 -22.1997 -13.7218 -13.3713  -8.1149  -7.7654  -3.6929  -3.0464
    -3.0269  -2.5073  -1.7837  -0.9638   0.0784   1.1298   1.1877   1.3914

          k = 0.4000 0.0692 0.0000 ( 31161 PWs)   bands (ev):

   -22.2498 -22.2495 -22.2469 -22.2455 -22.2235 -22.2171 -22.2060 -22.2029
   -22.2025 -22.1991 -13.7070 -13.3624  -8.0898  -7.7473  -3.6825  -3.4549
    -2.8923  -2.7318  -1.5733  -1.1664   0.2876   0.7522   1.4290   1.4442

          k = 0.4000 0.1384 0.0000 ( 31156 PWs)   bands (ev):

   -22.2516 -22.2511 -22.2457 -22.2440 -22.2229 -22.2172 -22.2070 -22.2036
   -22.2016 -22.1982 -13.6642 -13.3376  -8.0165  -7.6957  -4.0076  -3.6614
    -3.1982  -2.8734  -1.6803  -1.3792   0.5062   0.8842   1.5525   1.9106

          k = 0.4000 0.2076 0.0000 ( 31153 PWs)   bands (ev):

   -22.2539 -22.2535 -22.2436 -22.2420 -22.2222 -22.2175 -22.2078 -22.2046
   -22.2003 -22.1973 -13.5979 -13.3019  -7.9013  -7.6187  -4.5373  -3.7629
    -3.5762  -2.9075  -2.2496  -1.5993   0.7515   1.6347   1.7796   2.2615

          k = 0.4000 0.2768 0.0000 ( 31134 PWs)   bands (ev):

   -22.2565 -22.2562 -22.2413 -22.2399 -22.2216 -22.2180 -22.2082 -22.2054
   -22.1991 -22.1966 -13.5152 -13.2636  -7.7572  -7.5305  -4.9740  -4.1617
    -3.6771  -3.0234  -2.6833  -1.9870   1.1787   2.1382   2.2280   2.6328

          k = 0.4000 0.3460 0.0000 ( 31136 PWs)   bands (ev):

   -22.2589 -22.2587 -22.2391 -22.2380 -22.2212 -22.2186 -22.2082 -22.2061
   -22.1979 -22.1961 -13.4262 -13.2329  -7.6068  -7.4501  -5.2718  -4.5079
    -3.9002  -3.2706  -2.8420  -2.2855   1.5470   2.3652   2.5955   3.3043

          k = 0.4000 0.4152 0.0000 ( 31145 PWs)   bands (ev):

   -22.2608 -22.2607 -22.2373 -22.2366 -22.2208 -22.2193 -22.2079 -22.2065
   -22.1970 -22.1958 -13.3424 -13.2202  -7.4807  -7.3956  -5.3943  -4.8148
    -4.1013  -3.6058  -2.8082  -2.4636   1.8390   2.3502   3.0336   3.6179

          k = 0.4000 0.4844 0.0000 ( 31117 PWs)   bands (ev):

   -22.2618 -22.2617 -22.2363 -22.2360 -22.2204 -22.2199 -22.2074 -22.2070
   -22.1962 -22.1958 -13.2752 -13.2333  -7.4035  -7.3779  -5.3290  -5.1103
    -4.1024  -3.9135  -2.7088  -2.5923   2.0723   2.2462   3.3713   3.5809

          k = 0.4667 0.0000 0.0000 ( 31144 PWs)   bands (ev):

   -22.2489 -22.2482 -22.2479 -22.2469 -22.2210 -22.2187 -22.2041 -22.2029
   -22.2024 -22.2011 -13.5884 -13.4684  -8.0900  -7.9705  -3.4490  -3.2143
    -2.7986  -2.6145  -1.4758  -1.1213   0.2185   0.6393   1.1886   1.3741

          k = 0.4667 0.0692 0.0000 ( 31154 PWs)   bands (ev):

   -22.2498 -22.2495 -22.2468 -22.2461 -22.2208 -22.2187 -22.2048 -22.2036
   -22.2017 -22.2004 -13.5756 -13.4576  -8.0640  -7.9470  -3.4523  -3.3063
    -2.9915  -2.8620  -1.3502  -1.1964   0.2799   0.4337   1.4958   1.6739

          k = 0.4667 0.1384 0.0000 ( 31154 PWs)   bands (ev):

   -22.2517 -22.2515 -22.2451 -22.2444 -22.2205 -22.2186 -22.2059 -22.2047
   -22.2005 -22.1993 -13.5386 -13.4267  -7.9876  -7.8781  -3.7514  -3.5533
    -3.2705  -3.0943  -1.6048  -1.4596   0.5570   0.7543   1.8324   1.9603

          k = 0.4667 0.2076 0.0000 ( 31155 PWs)   bands (ev):

   -22.2542 -22.2541 -22.2429 -22.2423 -22.2202 -22.2187 -22.2068 -22.2057
   -22.1993 -22.1983 -13.4820 -13.3808  -7.8661  -7.7698  -4.2917  -4.0060
    -3.3739  -3.1375  -2.1351  -1.8887   1.0646   1.4135   2.0700   2.2724

          k = 0.4667 0.2768 0.0000 ( 31133 PWs)   bands (ev):

   -22.2570 -22.2569 -22.2406 -22.2401 -22.2201 -22.2189 -22.2073 -22.2063
   -22.1982 -22.1973 -13.4137 -13.3277  -7.7104  -7.6338  -4.7698  -4.4801
    -3.4946  -3.2636  -2.5433  -2.2978   1.5452   1.9033   2.4803   2.7266

          k = 0.4667 0.3460 0.0000 ( 31121 PWs)   bands (ev):

   -22.2596 -22.2595 -22.2385 -22.2381 -22.2200 -22.2192 -22.2074 -22.2067
   -22.1972 -22.1966 -13.3435 -13.2775  -7.5405  -7.4893  -5.1355  -4.8663
    -3.7675  -3.5429  -2.7043  -2.5159   1.8644   2.1403   2.9939   3.2825

          k = 0.4667 0.4152 0.0000 ( 31152 PWs)   bands (ev):

   -22.2615 -22.2615 -22.2368 -22.2366 -22.2201 -22.2196 -22.2074 -22.2069
   -22.1965 -22.1961 -13.2828 -13.2411  -7.3895  -7.3644  -5.3560  -5.1486
    -4.0555  -3.8779  -2.7117  -2.5957   2.0797   2.2526   3.4086   3.6299

          k = 0.4667 0.4844 0.0000 ( 31125 PWs)   bands (ev):

   -22.2626 -22.2625 -22.2359 -22.2358 -22.2201 -22.2199 -22.2072 -22.2070
   -22.1960 -22.1959 -13.2419 -13.2277  -7.2981  -7.2916  -5.4157  -5.3341
    -4.1960  -4.1260  -2.6757  -2.6364   2.2170   2.2759   3.6631   3.7627

     the Fermi energy is    -0.9264 ev

!    total energy              =    -413.80383991 Ry
     estimated scf accuracy    <          3.8E-13 Ry
     smearing contrib. (-TS)   =       0.00013599 Ry
     internal energy E=F+TS    =    -413.80397590 Ry

     The total energy is F=E-TS. E is the sum of the following terms:
     one-electron contribution =   -1175.30417990 Ry
     hartree contribution      =     599.75612563 Ry
     xc contribution           =    -154.39816937 Ry
     ewald contribution        =     316.14224774 Ry

     convergence has been achieved in   7 iterations

     negative rho (up, down):  2.895E-05 0.000E+00

     Forces acting on atoms (cartesian axes, Ry/au):

     atom    1 type  1   force =     0.00000161    0.00000000   -0.00000085
     atom    2 type  1   force =     0.00000030    0.00000000    0.00001064
     atom    3 type  2   force =    -0.00000152    0.00000000   -0.00000394
     atom    4 type  2   force =    -0.00000039    0.00000000   -0.00000585

     Total force =     0.000013     Total SCF correction =     0.000003
     SCF correction compared to forces is large: reduce conv_thr to get better values

     bfgs converged in  19 scf cycles and  18 bfgs steps
     (criteria: energy <  1.0E-06 Ry, force <  3.8E-05 Ry/Bohr)

     End of BFGS Geometry Optimization

     Final energy   =    -413.8038399086 Ry

     File ./wfc-out/pwscf.bfgs deleted, as requested
Begin final coordinates

ATOMIC_POSITIONS (crystal)
Sn            0.5878087125        0.7500000000        0.1446274333
Sn            0.0878107012        0.2500000000        0.0065165291
Se            0.0262952921        0.2500000000        0.1420651948
Se            0.5262932682        0.7500000000        0.0090808967
End final coordinates



     Writing output data file ./wfc-out/pwscf.save/
 
     init_run     :      2.01s CPU      2.48s WALL (       1 calls)
     electrons    :    713.82s CPU    790.66s WALL (      19 calls)
     update_pot   :      8.00s CPU      8.08s WALL (      18 calls)
     forces       :     17.63s CPU     20.71s WALL (      19 calls)

     Called by init_run:
     wfcinit      :      1.18s CPU      1.31s WALL (       1 calls)
     potinit      :      0.16s CPU      0.19s WALL (       1 calls)
     hinit0       :      0.39s CPU      0.46s WALL (       1 calls)

     Called by electrons:
     c_bands      :    573.39s CPU    591.86s WALL (     164 calls)
     sum_band     :    111.67s CPU    141.92s WALL (     164 calls)
     v_of_rho     :      6.35s CPU      6.51s WALL (     165 calls)
     newd         :     23.41s CPU     51.07s WALL (     165 calls)
     mix_rho      :      0.97s CPU      1.01s WALL (     164 calls)

     Called by c_bands:
     init_us_2    :     14.28s CPU     15.40s WALL (   22272 calls)
     cegterg      :    505.63s CPU    520.50s WALL (   10496 calls)

     Called by *egterg:
     cdiaghg      :     30.17s CPU     30.61s WALL (   40605 calls)
     h_psi        :    374.80s CPU    388.04s WALL (   42973 calls)
     s_psi        :     18.46s CPU     18.79s WALL (   42973 calls)
     g_psi        :      1.95s CPU      1.98s WALL (   32413 calls)

     Called by h_psi:
     h_psi:calbec :     29.27s CPU     30.17s WALL (   42973 calls)
     vloc_psi     :    317.99s CPU    329.93s WALL (   42973 calls)
     add_vuspsi   :     23.95s CPU     24.34s WALL (   42973 calls)

     General routines
     calbec       :     40.90s CPU     42.10s WALL (   58333 calls)
     fft          :      5.42s CPU      5.55s WALL (    2352 calls)
     ffts         :      0.17s CPU      0.18s WALL (     329 calls)
     fftw         :    339.43s CPU    351.97s WALL ( 1605874 calls)
     interpolate  :      0.44s CPU      0.44s WALL (     165 calls)
 
     Parallel routines
     fft_scatt_xy :     46.67s CPU     48.44s WALL ( 1608555 calls)
     fft_scatt_yz :    195.82s CPU    202.85s WALL ( 1608555 calls)
 
     PWSCF        :  12m25.84s CPU  15m11.87s WALL

 
   This run was terminated on:   6:39: 3   8May2023            

=------------------------------------------------------------------------------=
   JOB DONE.
=------------------------------------------------------------------------------=
