
     Program PWSCF v.6.6 starts on  8May2023 at  6:38: 5 

     This program is part of the open-source Quantum ESPRESSO suite
     for quantum simulation of materials; please cite
         "P. Giannozzi et al., J. Phys.:Condens. Matter 21 395502 (2009);
         "P. Giannozzi et al., J. Phys.:Condens. Matter 29 465901 (2017);
          URL http://www.quantum-espresso.org", 
     in publications or presentations arising from this work. More details at
     http://www.quantum-espresso.org/quote

     Parallel version (MPI), running on    24 processors

     MPI processes distributed on     1 nodes
     R & G space division:  proc/nbgrp/npool/nimage =      24
     Fft bands division:     nmany     =       1
     Reading input from INCAR-nscf.pw

     Current dimensions of program PWSCF are:
     Max number of different atomic species (ntypx) = 10
     Max number of k-points (npk) =  40000
     Max angular momentum in pseudopotentials (lmaxx) =  3

     Atomic positions and unit cell read from directory:
     ./wfc-out/pwscf.save/
     Atomic positions from file used, from input discarded
 

     Subspace diagonalization in iterative solution of the eigenvalue problem:
     a serial algorithm will be used

 
     Parallelization info
     --------------------
     sticks:   dense  smooth     PW     G-vecs:    dense   smooth      PW
     Min         135      72     21                26575    10340    1685
     Max         137      73     22                26590    10350    1692
     Sum        3251    1729    519               637973   248295   40507
 


     bravais-lattice index     =            0
     lattice parameter (alat)  =       8.3935  a.u.
     unit-cell volume          =    2570.3292 (a.u.)^3
     number of atoms/cell      =            4
     number of atomic types    =            2
     number of electrons       =        40.00
     number of Kohn-Sham states=           20
     kinetic-energy cutoff     =      80.0000  Ry
     charge density cutoff     =     600.0000  Ry
     Exchange-correlation= SLA  PW   PBE  PBE
                           (   1   4   3   4   0   0   0)

     celldm(1)=   8.393460  celldm(2)=   0.000000  celldm(3)=   0.000000
     celldm(4)=   0.000000  celldm(5)=   0.000000  celldm(6)=   0.000000

     crystal axes: (cart. coord. in units of alat)
               a(1) = (   1.000000   0.000000   0.000000 )  
               a(2) = (   0.000000   0.965334   0.000000 )  
               a(3) = (   0.000000   0.000000   4.502853 )  

     reciprocal axes: (cart. coord. in units 2 pi/alat)
               b(1) = (  1.000000  0.000000  0.000000 )  
               b(2) = (  0.000000  1.035910  0.000000 )  
               b(3) = (  0.000000  0.000000  0.222081 )  


     PseudoPot. # 1 for Sn read from file:
     ./Sn_pbe_v1.uspp.F.UPF
     MD5 check sum: 4cf58ce39ec5d5d420df3dd08604eb00
     Pseudo is Ultrasoft + core correction, Zval = 14.0
     Generated by new atomic code, or converted to UPF format
     Using radial grid of  891 points,  6 beta functions with: 
                l(1) =   0
                l(2) =   0
                l(3) =   1
                l(4) =   1
                l(5) =   2
                l(6) =   2
     Q(r) pseudized with  6 coefficients,  rinner =    1.200   1.200   1.200
                                                       1.200   1.200

     PseudoPot. # 2 for Se read from file:
     ./Se_pbe_v1.uspp.F.UPF
     MD5 check sum: 1b3568f3a8ae88f9a2a0ad0698632c85
     Pseudo is Ultrasoft + core correction, Zval =  6.0
     Generated by new atomic code, or converted to UPF format
     Using radial grid of  877 points,  6 beta functions with: 
                l(1) =   0
                l(2) =   0
                l(3) =   1
                l(4) =   1
                l(5) =   2
                l(6) =   2
     Q(r) pseudized with  8 coefficients,  rinner =    1.300   1.300   1.300
                                                       1.300   1.300

     atomic species   valence    mass     pseudopotential
        Sn            14.00   118.71000     Sn( 1.00)
        Se             6.00    78.96000     Se( 1.00)

     No symmetry found



   Cartesian axes

     site n.     atom                  positions (alat units)
         1           Sn  tau(   1) = (   0.5870617   0.7240008   0.6512032  )
         2           Sn  tau(   2) = (   0.0870648   0.2413336   0.0293738  )
         3           Se  tau(   3) = (   0.0270420   0.2413336   0.6399179  )
         4           Se  tau(   4) = (   0.5270395   0.7240008   0.0406730  )

     number of k points=   120

     Number of k-points >= 100: set verbosity='high' to print them.

     Dense  grid:   637973 G-vectors     FFT dimensions: (  72,  64, 300)

     Smooth grid:   248295 G-vectors     FFT dimensions: (  48,  48, 216)

     Estimated max dynamical RAM per process >      90.49 MB

     Estimated total dynamical RAM >       2.12 GB

     The potential is recalculated from file :
     ./wfc-out/pwscf.save/charge-density


     negative rho (up, down):  2.882E-05 0.000E+00
     Starting wfcs are   26 randomized atomic wfcs

     Band Structure Calculation
     Davidson diagonalization with overlap

     ethr =  2.50E-13,  avg # of iterations = 57.8

     total cpu time spent up to now is      112.3 secs

     End of band structure calculation

     Number of k-points >= 100: set verbosity='high' to print the bands.

     highest occupied level (ev):    -0.9651



               ==================================================
                            POLARIZATION CALCULATION
                         !!! NOT THOROUGHLY TESTED !!!
               --------------------------------------------------


                     K-POINTS STRINGS USED IN CALCULATIONS
                     ~~~~~~~~~~~~~~~~~~~~~~~~~~~~~~~~~~~~~

       G-vector along string (2 pi/a):  1.00000  0.00000  0.00000
       Modulus of the vector (1/bohr):  0.74858
       Number of k-points per string:  15
       Number of different strings  :   8


                               IONIC POLARIZATION
                               ~~~~~~~~~~~~~~~~~~

  ============================================================================
    Ion    Species    Charge              Position                Phase
  ----------------------------------------------------------------------------
     1        Sn      14.000       0.5871  0.7240  0.6512     0.21886 (mod 2)
     2        Sn      14.000       0.0871  0.2413  0.0294    -0.78109 (mod 2)
     3        Se       6.000       0.0270  0.2413  0.6399     0.16225 (mod 2)
     4        Se       6.000       0.5270  0.7240  0.0407    -0.83776 (mod 2)
  ----------------------------------------------------------------------------
                                               IONIC PHASE:   0.76226 (mod 2)
  ============================================================================


                            ELECTRONIC POLARIZATION
                            ~~~~~~~~~~~~~~~~~~~~~~~

  ============================================================================
    String     Weight      First k-point in string         Phase
  ----------------------------------------------------------------------------
       1      0.066667      0.0000  0.0000  0.0000    -0.48128
       2      0.133333      0.0000  0.0691  0.0000    -0.34342
       3      0.133333      0.0000  0.1381  0.0000    -0.22451
       4      0.133333      0.0000  0.2072  0.0000    -0.15284
       5      0.133333      0.0000  0.2762  0.0000    -0.09342
       6      0.133333      0.0000  0.3453  0.0000    -0.04721
       7      0.133333      0.0000  0.4144  0.0000    -0.02292
       8      0.133333      0.0000  0.4834  0.0000    -0.01472
  ----------------------------------------------------------------------------
                                          ELECTRONIC PHASE:  -0.15196
  ============================================================================


                               SUMMARY OF PHASES
                               ~~~~~~~~~~~~~~~~~

                          Ionic Phase:  0.76226
                     Electronic Phase: -0.15196
                          TOTAL PHASE:  0.61030 MOD_TOT: 2


                             VALUES OF POLARIZATION
                             ~~~~~~~~~~~~~~~~~~~~~~

        The calculation of phases done along the direction of vector 1
        of the reciprocal lattice gives the following contribution to
        the polarization vector (in different units, and being Omega
        the volume of the unit cell):

           P =   5.1225469  (mod  16.7869208)  (e/Omega).bohr

           P =   0.0019930  (mod   0.0065310)  e/bohr^2

           P =   0.1139406  (mod   0.3733908)  C/m^2

        The polarization direction is:  ( 1.00000 , 0.00000 , 0.00000 )


               ==================================================



     Writing output data file ./wfc-out/pwscf.save/
 
     init_run     :      0.91s CPU      1.09s WALL (       1 calls)
     electrons    :    114.80s CPU    119.94s WALL (       1 calls)

     Called by init_run:
     wfcinit      :      0.00s CPU      0.00s WALL (       1 calls)
     potinit      :      0.06s CPU      0.08s WALL (       1 calls)
     hinit0       :      0.31s CPU      0.32s WALL (       1 calls)

     Called by electrons:
     c_bands      :    106.46s CPU    110.86s WALL (       1 calls)
     v_of_rho     :      0.04s CPU      0.04s WALL (       1 calls)
     newd         :      0.18s CPU      0.28s WALL (       1 calls)

     Called by c_bands:
     init_us_2    :      0.15s CPU      0.20s WALL (     344 calls)
     cegterg      :     96.48s CPU    100.31s WALL (     368 calls)

     Called by *egterg:
     cdiaghg      :      5.10s CPU      5.22s WALL (    7060 calls)
     h_psi        :     72.91s CPU     76.27s WALL (    7428 calls)
     s_psi        :      3.00s CPU      3.09s WALL (    7428 calls)
     g_psi        :      0.58s CPU      0.60s WALL (    6940 calls)

     Called by h_psi:
     h_psi:calbec :      4.70s CPU      4.91s WALL (    7428 calls)
     vloc_psi     :     64.24s CPU     67.29s WALL (    7428 calls)
     add_vuspsi   :      3.56s CPU      3.66s WALL (    7428 calls)

     General routines
     calbec       :      5.95s CPU      6.45s WALL (    7652 calls)
     fft          :      0.04s CPU      0.04s WALL (      13 calls)
     ffts         :      0.00s CPU      0.00s WALL (       1 calls)
     fftw         :     58.27s CPU     61.03s WALL (  276164 calls)
     interpolate  :      0.00s CPU      0.00s WALL (       1 calls)
     davcio       :      0.10s CPU      0.49s WALL (     464 calls)
 
     Parallel routines
     fft_scatt_xy :      7.93s CPU      8.31s WALL (  276178 calls)
     fft_scatt_yz :     32.47s CPU     33.97s WALL (  276178 calls)
 
     PWSCF        :   1m58.96s CPU   3m11.83s WALL

 
   This run was terminated on:   6:41:17   8May2023            

=------------------------------------------------------------------------------=
   JOB DONE.
=------------------------------------------------------------------------------=
