<UPF version="2.0.1">
<PP_INFO>
Generated by new atomic code, or converted to UPF format
Author:
Generation date:
Pseudopotential type: US
Element: Pb
Functional:  SLA  PZ   NOGX NOGC
Suggested minimum cutoff for wavefunctions:   0. Ry
Suggested minimum cutoff for charge density:   0. Ry
The Pseudo was generated with a Scalar-Relativistic Calculation
L component and cutoff radius for Local Potential:  0   0.0000
Valence configuration:
nl pn  l   occ       Rcut    Rcut US       E pseu
5D  0  2 10.00     10.000      2.300     0.000000
6S  0  0  2.00     10.000      2.500     0.000000
6P  0  1  2.00     10.000      2.500     0.000000
Generation configuration: not available.
</PP_INFO>
<!--
END OF HUMAN READABLE SECTION
-->
<PP_HEADER generated="Generated by new atomic code, or converted to UPF format" author="" date="" comment="" element="Pb" pseudo_type="US" relativistic="scalar" is_ultrasoft="true" is_paw="false" is_coulomb="false" has_so="false" has_wfc="false" has_gipaw="false" paw_as_gipaw="false" core_correction="false" functional=" SLA  PZ   NOGX NOGC" z_valence="1.400000000000e1" total_psenergy="-1.201692978583e2" wfc_cutoff="0.000000000000e0" rho_cutoff="0.000000000000e0" l_max="2" l_max_rho="0" l_local="0" mesh_size="899" number_of_wfc="3" number_of_proj="6"/>
<PP_MESH mesh="899" rmax="1.549776251390e2" zmesh="8.200000000000e1">
<PP_R>
0.000000000000000e0 6.978111141779999e-10 1.413287400820000e-9 2.146876055880000e-9
2.899035596170000e-9 3.670236145870000e-9 4.460959730430000e-9 5.271700577840001e-9
6.102965427510001e-9 6.955273847050001e-9 7.829158556940000e-9 8.725165763600002e-9
9.643855500679999e-9 1.058580197920000e-8 1.155159394630000e-8 1.254183505350000e-8
1.355714423360000e-8 1.459815608810000e-8 1.566552128300000e-8 1.675990695660000e-8
1.788199713530000e-8 1.903249316220000e-8 2.021211413470000e-8 2.142159735420000e-8
2.266169878730000e-8 2.393319353750000e-8 2.523687633060000e-8 2.657356201080000e-8
2.794408604999999e-8 2.934930507050000e-8 3.079009737989999e-8 3.226736352020000e-8
3.378202683089999e-8 3.533503402580001e-8 3.692735578510000e-8 3.855998736160000e-8
4.023394920329999e-8 4.195028759070000e-8 4.371007529130000e-8 4.551441222959999e-8
4.736442617500000e-8 4.926127344629999e-8 5.120613963499999e-8 5.320024034560000e-8
5.524482195609998e-8 5.734116239639999e-8 5.949057194769999e-8 6.169439406080000e-8
6.395400619629999e-8 6.627082068529999e-8 6.864628561239999e-8 7.108188572039999e-8
7.357914333869999e-8 7.613961933460000e-8 7.876491408889999e-8 8.145666849640000e-8
8.421656499110004e-8 8.704632859810001e-8 8.994772801200000e-8 9.292257670170001e-8
9.597273404449997e-8 9.910010648809999e-8 1.023066487420000e-7 1.055943650000000e-7
1.089653101900000e-7 1.124215912650000e-7 1.159653685120000e-7 1.195988569060000e-7
1.233243274980000e-7 1.271441088260000e-7 1.310605883790000e-7 1.350762140840000e-7
1.391934958379999e-7 1.434150070750000e-7 1.477433863790000e-7 1.521813391260000e-7
1.567316391810000e-7 1.613971306310000e-7 1.661807295600000e-7 1.710854258720000e-7
1.761142851620000e-7 1.812704506310000e-7 1.865571450500000e-7 1.919776727760000e-7
1.975354218150000e-7 2.032338659400000e-7 2.090765668650000e-7 2.150671764680000e-7
2.212094390749999e-7 2.275071938010000e-7 2.339643769460000e-7 2.405850244610000e-7
2.473732744660000e-7 2.543333698380000e-7 2.614696608630000e-7 2.687866079550000e-7
2.762887844450000e-7 2.839808794370000e-7 2.918677007409999e-7 2.999541778769999e-7
3.082453651560000e-7 3.167464448400001e-7 3.254627303810000e-7 3.343996697410000e-7
3.435628487980000e-7 3.529579948369999e-7 3.625909801310001e-7 3.724678256080000e-7
3.825947046189999e-7 3.929779467920000e-7 4.036240419930000e-7 4.145396443770000e-7
4.257315765510000e-7 4.372068338360000e-7 4.489725886430000e-7 4.610361949510001e-7
4.734051929060000e-7 4.860873135360001e-7 4.990904835779999e-7 5.124228304360000e-7
5.260926872620000e-7 5.401085981610000e-7 5.544793235340000e-7 5.692138455519999e-7
5.843213737710000e-7 5.998113508870000e-7 6.156934586409999e-7 6.319776238660001e-7
6.486740246979999e-7 6.657930969279999e-7 6.833455405349999e-7 7.013423263680001e-7
7.197947030030001e-7 7.387142037759999e-7 7.581126539920002e-7 7.780021783130000e-7
7.983952083399998e-7 8.193044903790001e-7 8.407430934140001e-7 8.627244172679999e-7
8.852622009839999e-7 9.083705314119999e-7 9.320638520099999e-7 9.563569718740000e-7
9.812650749960001e-7 1.006803729750000e-6 1.032988898630000e-6 1.059836948210000e-6
1.087364659400000e-6 1.115589237930000e-6 1.144528325050000e-6 1.174200008660000e-6
1.204622834510000e-6 1.235815817870000e-6 1.267798455360000e-6 1.300590737170000e-6
1.334213159550000e-6 1.368686737600000e-6 1.404033018440000e-6 1.440274094640000e-6
1.477432618050000e-6 1.515531813950000e-6 1.554595495590000e-6 1.594648079050000e-6
1.635714598480000e-6 1.677820721790000e-6 1.720992766700000e-6 1.765257717120000e-6
1.810643240100000e-6 1.857177703070000e-6 1.904890191570000e-6 1.953810527470000e-6
2.003969287570000e-6 2.055397822730000e-6 2.108128277450000e-6 2.162193609990000e-6
2.217627612930000e-6 2.274464934350000e-6 2.332741099400000e-6 2.392492532600000e-6
2.453756580530000e-6 2.516571535220000e-6 2.580976658060000e-6 2.647012204340000e-6
2.714719448440000e-6 2.784140709580000e-6 2.855319378310000e-6 2.928299943620000e-6
3.003128020740000e-6 3.079850379650000e-6 3.158514974330000e-6 3.239170972690000e-6
3.321868787380000e-6 3.406660107210000e-6 3.493597929530000e-6 3.582736593289999e-6
3.674131813070000e-6 3.767840713860000e-6 3.863921866760000e-6 3.962435325630000e-6
4.063442664580002e-6 4.167007016489999e-6 4.273193112450000e-6 4.382067322229999e-6
4.493697695760001e-6 4.608154005640000e-6 4.725507790800000e-6 4.845832401180000e-6
4.969203043570000e-6 5.095696828640000e-6 5.225392819130001e-6 5.358372079250001e-6
5.494717725359999e-6 5.634514977939999e-6 5.777851214820001e-6 5.924816025810000e-6
6.075501268700000e-6 6.230001126680000e-6 6.388412167180000e-6 6.550833402269999e-6
6.717366350499999e-6 6.888115100379999e-6 7.063186375449999e-6 7.242689600940001e-6
7.426736972230000e-6 7.615443524900000e-6 7.808927206689998e-6 8.007308951210000e-6
8.210712753500001e-6 8.419265747559999e-6 8.633098285800001e-6 8.852344020520000e-6
9.077139987439999e-6 9.307626691350002e-6 9.543948193950003e-6 9.786252203869999e-6
1.003469016900000e-5 1.028941737120000e-5 1.055059302320000e-5 1.081838036830000e-5
1.109294678230000e-5 1.137446387820000e-5 1.166310761330000e-5 1.195905839930000e-5
1.226250121510000e-5 1.257362572240000e-5 1.289262638420000e-5 1.321970258610000e-5
1.355505876140000e-5 1.389890451880000e-5 1.425145477300000e-5 1.461292987930000e-5
1.498355577150000e-5 1.536356410290000e-5 1.575319239100000e-5 1.615268416610000e-5
1.656228912370000e-5 1.698226328010000e-5 1.741286913290000e-5 1.785437582480000e-5
1.830705931180000e-5 1.877120253590000e-5 1.924709560160000e-5 1.973503595760000e-5
2.023532858250000e-5 2.074828617560000e-5 2.127422935190000e-5 2.181348684310000e-5
2.236639570270000e-5 2.293330151670000e-5 2.351455861980000e-5 2.411053031640000e-5
2.472158910840000e-5 2.534811692730000e-5 2.599050537350000e-5 2.664915596070000e-5
2.732448036680000e-5 2.801690069170000e-5 2.872684972050000e-5 2.945477119460000e-5
3.020112008850000e-5 3.096636289470000e-5 3.175097791470000e-5 3.255545555840000e-5
3.338029865070000e-5 3.422602274530000e-5 3.509315644730000e-5 3.598224174350000e-5
3.689383434110000e-5 3.782850401520000e-5 3.878683496469999e-5 3.976942617770000e-5
4.077689180569999e-5 4.180986154740001e-5 4.286898104270001e-5 4.395491227570000e-5
4.506833398870000e-5 4.620994210660000e-5 4.738045017159999e-5 4.858058978929999e-5
4.981111108610000e-5 5.107278317780000e-5 5.236639465060000e-5 5.369275405370001e-5
5.505269040490001e-5 5.644705370890000e-5 5.787671548790001e-5 5.934256932710000e-5
6.084553143300000e-5 6.238654120570000e-5 6.396656182650000e-5 6.558658085980000e-5
6.724761087019999e-5 6.895069005540000e-5 7.069688289560000e-5 7.248728081790000e-5
7.432300287940001e-5 7.620519646610000e-5 7.813503801040000e-5 8.011373372590000e-5
8.214252036190000e-5 8.422266597620000e-5 8.635547072740000e-5 8.854226768789999e-5
9.078442367700001e-5 9.308334011530000e-5 9.544045390020001e-5 9.785723830469999e-5
1.003352038980000e-4 1.028758994880000e-4 1.054809130940000e-4 1.081518729330000e-4
1.108904484430000e-4 1.136983513210000e-4 1.165773365990000e-4 1.195292037370000e-4
1.225557977470000e-4 1.256590103490000e-4 1.288407811520000e-4 1.321030988660000e-4
1.354480025470000e-4 1.388775828670000e-4 1.423939834270000e-4 1.459994020900000e-4
1.496960923620000e-4 1.534863647930000e-4 1.573725884280000e-4 1.613571922820000e-4
1.654426668630000e-4 1.696315657260000e-4 1.739265070680000e-4 1.783301753680000e-4
1.828453230620000e-4 1.874747722640000e-4 1.922214165300000e-4 1.970882226680000e-4
2.020782325900000e-4 2.071945652140000e-4 2.124404184160000e-4 2.178190710230000e-4
2.233338848700000e-4 2.289883068940000e-4 2.347858712920000e-4 2.407302017330000e-4
2.468250136150000e-4 2.530741163940000e-4 2.594814159629999e-4 2.660509170930000e-4
2.727867259360000e-4 2.796930525920000e-4 2.867742137390001e-4 2.940346353340000e-4
3.014788553770000e-4 3.091115267480000e-4 3.169374201140001e-4 3.249614269140000e-4
3.331885624130000e-4 3.416239688390000e-4 3.502729185960000e-4 3.591408175569999e-4
3.682332084500000e-4 3.775557743140000e-4 3.871143420570000e-4 3.969148860940000e-4
4.069635320840000e-4 4.172665607589999e-4 4.278304118470000e-4 4.386616880980000e-4
4.497671594130001e-4 4.611537670720000e-4 4.728286280770000e-4 4.847990395950000e-4
4.970724835239999e-4 5.096566311649999e-4 5.225593480199999e-4 5.357886987070000e-4
5.493529520020001e-4 5.632605860030000e-4 5.775202934359999e-4 5.921409870809999e-4
6.071318053470000e-4 6.225021179850000e-4 6.382615319390000e-4 6.544198973580001e-4
6.709873137440001e-4 6.879741362729998e-4 7.053909822610001e-4 7.232487378050001e-4
7.415585645830001e-4 7.603319068330000e-4 7.795804985040000e-4 7.993163705930000e-4
8.195518586630001e-4 8.402996105520000e-4 8.615725942810000e-4 8.833841061570002e-4
9.057477790840000e-4 9.286775910880001e-4 9.521878740460000e-4 9.762933226500000e-4
1.001009003590000e-3 1.026350364970000e-3 1.052333245980000e-3 1.078973886740000e-3
1.106288938540000e-3 1.134295474160000e-3 1.163010998610000e-3 1.192453460020000e-3
1.222641260900000e-3 1.253593269580000e-3 1.285328832100000e-3 1.317867784210000e-3
1.351230463820000e-3 1.385437723680000e-3 1.420510944440000e-3 1.456472048020000e-3
1.493343511260000e-3 1.531148380050000e-3 1.569910283640000e-3 1.609653449490000e-3
1.650402718380000e-3 1.692183559920000e-3 1.735022088500000e-3 1.778945079600000e-3
1.823979986500000e-3 1.870154957510000e-3 1.917498853470000e-3 1.966041265860000e-3
2.015812535270000e-3 2.066843770370000e-3 2.119166867330000e-3 2.172814529800000e-3
2.227820289310000e-3 2.284218526250000e-3 2.342044491360000e-3 2.401334327740000e-3
2.462125093480000e-3 2.524454784780000e-3 2.588362359720000e-3 2.653887762630000e-3
2.721071949010001e-3 2.789956911170000e-3 2.860585704440000e-3 2.933002474130000e-3
3.007252483079999e-3 3.083382139940000e-3 3.161439028250000e-3 3.241471936090000e-3
3.323530886640000e-3 3.407667169410000e-3 3.493933372330000e-3 3.582383414560000e-3
3.673072580280000e-3 3.766057553150000e-3 3.861396451819999e-3 3.959148866210000e-3
4.059375894740000e-3 4.162140182580000e-3 4.267505960750000e-3 4.375539086300000e-3
4.486307083440000e-3 4.599879185780001e-3 4.716326379570001e-3 4.835721448120000e-3
4.958139017210001e-3 5.083655601820000e-3 5.212349653890000e-3 5.344301611410001e-3
5.479593948629999e-3 5.618311227680000e-3 5.760540151360000e-3 5.906369617390000e-3
6.055890773930001e-3 6.209197076560001e-3 6.366384346730001e-3 6.527550831580000e-3
6.692797265420001e-3 6.862226932650000e-3 7.035945732330000e-3 7.214062244360000e-3
7.396687797360000e-3 7.583936538240000e-3 7.775925503570001e-3 7.972774692689999e-3
8.174607142759999e-3 8.381549005629999e-3 8.593729626700000e-3 8.811281625760001e-3
9.034340979910001e-3 9.263047108479999e-3 9.497542960270000e-3 9.737975102800000e-3
9.984493814010001e-3 1.023725317610000e-2 1.049641117190000e-2 1.076212978360000e-2
1.103457509400000e-2 1.131391739020000e-2 1.160033127040000e-2 1.189399575240000e-2
1.219509438620000e-2 1.250381536820000e-2 1.282035165910000e-2 1.314490110430000e-2
1.347766655790000e-2 1.381885600900000e-2 1.416868271220000e-2 1.452736532050000e-2
1.489512802230000e-2 1.527220068120000e-2 1.565881898000000e-2 1.605522456750000e-2
1.646166521030000e-2 1.687839494700000e-2 1.730567424710000e-2 1.774377017430000e-2
1.819295655260000e-2 1.865351413820000e-2 1.912573079460000e-2 1.960990167260000e-2
2.010632939480000e-2 2.061532424450000e-2 2.113720436020000e-2 2.167229593400000e-2
2.222093341540000e-2 2.278345972080000e-2 2.336022644740000e-2 2.395159409320000e-2
2.455793228220000e-2 2.517961999560000e-2 2.581704580830000e-2 2.647060813240000e-2
2.714071546540000e-2 2.782778664630000e-2 2.853225111700000e-2 2.925454919070000e-2
2.999513232720000e-2 3.075446341500000e-2 3.153301706080000e-2 3.233127988600000e-2
3.314975083079999e-2 3.398894146630000e-2 3.484937631380000e-2 3.573159317320000e-2
3.663614345870000e-2 3.756359254380000e-2 3.851452011420000e-2 3.948952053060000e-2
4.048920320010000e-2 4.151419295680000e-2 4.256513045280000e-2 4.364267255820000e-2
4.474749277180000e-2 4.588028164230000e-2 4.704174719960000e-2 4.823261539750000e-2
4.945363056730000e-2 5.070555588330000e-2 5.198917383949999e-2 5.330528673900000e-2
5.465471719520000e-2 5.603830864610000e-2 5.745692588120001e-2 5.891145558270000e-2
6.040280687889999e-2 6.193191191280000e-2 6.349972642500000e-2 6.510723035050001e-2
6.675542843170001e-2 6.844535084589999e-2 7.017805384970000e-2 7.195462043890000e-2
7.377616102539999e-2 7.564381413140000e-2 7.755874710090000e-2 7.952215682929999e-2
8.153527051160001e-2 8.359934640940001e-2 8.571567463730000e-2 8.788557796939999e-2
9.011041266590000e-2 9.239156932080000e-2 9.473047373140000e-2 9.712858778910000e-2
9.958741039309999e-2 1.021084783880000e-1 1.046933675230000e-1 1.073436934370000e-1
1.100611126720000e-1 1.128473237020000e-1 1.157040680000000e-1 1.186331311250000e-1
1.216363438350000e-1 1.247155832370000e-1 1.278727739560000e-1 1.311098893380000e-1
1.344289526870000e-1 1.378320385240000e-1 1.413212738890000e-1 1.448988396680000e-1
1.485669719560000e-1 1.523279634550000e-1 1.561841649070000e-1 1.601379865630000e-1
1.641918996910000e-1 1.683484381190000e-1 1.726101998180000e-1 1.769798485280000e-1
1.814601154210000e-1 1.860538008110000e-1 1.907637759010000e-1 1.955929845770000e-1
2.005444452530000e-1 2.056212527530000e-1 2.108265802470000e-1 2.161636812330000e-1
2.216358915750000e-1 2.272466315800000e-1 2.329994081450000e-1 2.388978169420000e-1
2.449455446690000e-1 2.511463713520000e-1 2.575041727100000e-1 2.640229225750000e-1
2.707066953790000e-1 2.775596686980000e-1 2.845861258610000e-1 2.917904586350000e-1
2.991771699610000e-1 3.067508767740000e-1 3.145163128890000e-1 3.224783319540000e-1
3.306419104920000e-1 3.390121510040000e-1 3.475942851640000e-1 3.563936770840000e-1
3.654158266720000e-1 3.746663730630000e-1 3.841510981510000e-1 3.938759301990000e-1
4.038469475409999e-1 4.140703823890000e-1 4.245526247230000e-1 4.353002262840000e-1
4.463199046750000e-1 4.576185475520000e-1 4.692032169350000e-1 4.810811536200000e-1
4.932597817040000e-1 5.057467132259999e-1 5.185497529239999e-1 5.316769031150001e-1
5.451363686950001e-1 5.589365622680001e-1 5.730861094050001e-1 5.875938540340000e-1
6.024688639660000e-1 6.177204365670001e-1 6.333581045670000e-1 6.493916420170000e-1
6.658310704000000e-1 6.826866648939999e-1 6.999689607940000e-1 7.176887600980000e-1
7.358571382559999e-1 7.544854510980000e-1 7.735853419240000e-1 7.931687487890001e-1
8.132479119579999e-1 8.338353815640001e-1 8.549440254429999e-1 8.765870371870001e-1
8.987779443810000e-1 9.215306170660000e-1 9.448592764019999e-1 9.687785035599999e-1
9.933032488370001e-1 1.018448841000000e0 1.044230996850000e0 1.070665831090000e0
1.097769866340000e0 1.125560043520000e0 1.154053732370000e0 1.183268742400000e0
1.213223333920000e0 1.243936229540000e0 1.275426625810000e0 1.307714205260000e0
1.340819148680000e0 1.374762147730000e0 1.409564417890000e0 1.445247711710000e0
1.481834332420000e0 1.519347147840000e0 1.557809604700000e0 1.597245743300000e0
1.637680212500000e0 1.679138285150000e0 1.721645873920000e0 1.765229547410000e0
1.809916546860000e0 1.855734803080000e0 1.902712953980000e0 1.950880362430000e0
2.000267134630000e0 2.050904138920000e0 2.102823025080000e0 2.156056244100000e0
2.210637068470000e0 2.266599613000000e0 2.323978856080000e0 2.382810661610000e0
2.443131801400000e0 2.504979978100000e0 2.568393848860000e0 2.633413049390000e0
2.700078218830000e0 2.768431025060000e0 2.838514190820000e0 2.910371520370000e0
2.984047926880000e0 3.059589460490000e0 3.137043337140000e0 3.216457968010000e0
3.297882989830000e0 3.381369295890000e0 3.466969067850000e0 3.554735808350000e0
3.644724374470000e0 3.736991011990000e0 3.831593390550000e0 3.928590639730000e0
4.028043385970000e0 4.130013790460000e0 4.234565588030000e0 4.341764126960000e0
4.451676409820000e0 4.564371135370000e0 4.679918741470000e0 4.798391449160000e0
4.919863307710000e0 5.044410241010000e0 5.172110094930000e0 5.303042686050000e0
5.437289851490000e0 5.574935500100000e0 5.716065664900000e0 5.860768556830000e0
6.009134619910000e0 6.161256587760000e0 6.317229541560000e0 6.477150969480000e0
6.641120827630000e0 6.809241602500000e0 6.981618375040000e0 7.158358886360000e0
7.339573605020000e0 7.525375796130000e0 7.715881592100000e0 7.911210065250000e0
8.111483302240000e0 8.316826480370000e0 8.527367945800000e0 8.743239293800000e0
8.964575451000000e0 9.191514759690000e0 9.424199064330001e0 9.662773800180000e0
9.907388084230000e0 1.015819480840000e1 1.041535073490000e1 1.067901659480000e1
1.094935718770000e1 1.122654148530000e1 1.151074273670000e1 1.180213857710000e1
1.210091113830000e1 1.240724716300000e1 1.272133812100000e1 1.304338032940000e1
1.337357507520000e1 1.371212874080000e1 1.405925293320000e1 1.441516461640000e1
1.478008624670000e1 1.515424591210000e1 1.553787747460000e1 1.593122071620000e1
1.633452148940000e1 1.674803187040000e1 1.717201031640000e1 1.760672182790000e1
1.805243811370000e1 1.850943776100000e1 1.897800640950000e1 1.945843692970000e1
1.995102960650000e1 2.045609232630000e1 2.097394076970000e1 2.150489860890000e1
2.204929770970000e1 2.260747833940000e1 2.317978937900000e1 2.376658854160000e1
2.436824259570000e1 2.498512759460001e1 2.561762911170000e1 2.626614248090000e1
2.693107304420000e1 2.761283640490000e1 2.831185868720000e1 2.902857680280000e1
2.976343872400000e1 3.051690376320000e1 3.128944286070000e1 3.208153887850000e1
3.289368690250000e1 3.372639455170000e1 3.458018229530000e1 3.545558377860000e1
3.635314615590000e1 3.727343043290000e1 3.821701181740000e1 3.918448007840000e1
4.017643991490000e1 4.119351133430000e1 4.223633003930000e1 4.330554782540000e1
4.440183298870000e1 4.552587074300000e1 4.667836364850000e1 4.786003205090000e1
4.907161453120001e1 5.031386836810000e1 5.158757001060000e1 5.289351556370001e1
5.423252128580000e1 5.560542409920000e1 5.701308211280001e1 5.845637515870000e1
5.993620534190001e1 6.145349760460000e1 6.300920030380000e1 6.460428580440001e1
6.623975108660000e1 6.791661836960000e1 6.963593574990000e1 7.139877785700000e1
7.320624652440000e1 7.505947147900000e1 7.695961104670001e1 7.890785287650001e1
8.090541468310001e1 8.295354500760000e1 8.505352399810000e1 8.720666420990000e1
8.941431142560001e1 9.167784549660000e1 9.399868120550002e1 9.637826915000000e1
9.881809665020000e1 1.013196886780000e2 1.038846088090000e2 1.065144602020000e2
1.092108866000000e2 1.119755733580000e2 1.148102484940000e2 1.177166837730000e2
1.206966958110000e2 1.237521472130000e2 1.268849477350000e2 1.300970554810000e2
1.333904781210000e2 1.367672741520000e2 1.402295541820000e2 1.437794822470000e2
1.474192771700000e2 1.511512139400000e2 1.549776251390000e2
</PP_R>
<PP_RAB>
6.891248192020000e-10 7.065700970560000e-10 7.244570042219999e-10 7.427967205989999e-10
7.616007091060000e-10 7.808807228479998e-10 8.006488124619999e-10 8.209173336479999e-10
8.416989548890003e-10 8.630066653780000e-10 8.848537831250001e-10 9.072539632909999e-10
9.302212067180003e-10 9.537698686810002e-10 9.779146678590003e-10 1.002670695540000e-9
1.028053425040000e-9 1.054078721400000e-9 1.080762851280000e-9 1.108122493120000e-9
1.136174747580000e-9 1.164937148259999e-9 1.194427672570000e-9 1.224664753060000e-9
1.255667288880000e-9 1.287454657640000e-9 1.320046727470000e-9 1.353463869470000e-9
1.387726970450000e-9 1.422857445960000e-9 1.458877253700000e-9 1.495808907210000e-9
1.533675489970000e-9 1.572500669850000e-9 1.612308713830000e-9 1.653124503240000e-9
1.694973549279999e-9 1.737882008970000e-9 1.781876701480000e-9 1.826985124940000e-9
1.873235473580000e-9 1.920656655360000e-9 1.969278310080000e-9 2.019130827839999e-9
2.070245368100000e-9 2.122653879110000e-9 2.176389117890000e-9 2.231484670720000e-9
2.287974974110000e-9 2.345895336339999e-9 2.405281959510000e-9 2.466171962210001e-9
2.528603402670000e-9 2.592615302570000e-9 2.658247671420000e-9 2.725541531609999e-9
2.794538943979999e-9 2.865283034150000e-9 2.937818019500000e-9 3.012189236740000e-9
3.088443170310000e-9 3.166627481400000e-9 3.246791037750000e-9 3.328983944190000e-9
3.413257573960000e-9 3.499664600830000e-9 3.588259031990000e-9 3.679096241860000e-9
3.772233006640000e-9 3.867727539850000e-9 3.965639528679999e-9 4.066030171300000e-9
4.168962215150001e-9 4.274499996080000e-9 4.382709478670000e-9 4.493658297340001e-9
4.607415798740000e-9 4.724053084990000e-9 4.843643058199999e-9 4.966260465990000e-9
5.091981948250001e-9 5.220886084969999e-9 5.353053445460000e-9 5.488566638600001e-9
5.627510364570000e-9 5.769971467700000e-9 5.916038990830000e-9 6.065804230910000e-9
6.219360796090000e-9 6.376804664230002e-9 6.538234242860000e-9 6.703750430740001e-9
6.873456680860000e-9 7.047459065149999e-9 7.225866340780001e-9 7.408790018090000e-9
7.596344430340000e-9 7.788646805139999e-9 7.985817337730000e-9 8.187979266119999e-9
8.395258948090000e-9 8.607785940200001e-9 8.825693078719999e-9 9.049116562720000e-9
9.278196039150000e-9 9.513074690129999e-9 9.753899322469998e-9 1.000082045940000e-8
1.025399243470000e-8 1.051357348900000e-8 1.077972586900000e-8 1.105261592860000e-8
1.133241423300000e-8 1.161929566510000e-8 1.191343953530000e-8 1.221502969300000e-8
1.252425464190000e-8 1.284130765760000e-8 1.316638690860000e-8 1.349969558010000e-8
1.384144200080000e-8 1.419183977320000e-8 1.455110790760000e-8 1.491947095800000e-8
1.529715916350000e-8 1.568440859140000e-8 1.608146128519999e-8 1.648856541590000e-8
1.690597543660000e-8 1.733395224240000e-8 1.777276333260000e-8 1.822268297839999e-8
1.868399239430000e-8 1.915697991360000e-8 1.964194116900000e-8 2.013917927700000e-8
2.064900502770000e-8 2.117173707870000e-8 2.170770215450000e-8 2.225723525090000e-8
2.282067984380000e-8 2.339838810450001e-8 2.399072111940001e-8 2.459804911610000e-8
2.522075169409999e-8 2.585921806290000e-8 2.651384728490000e-8 2.718504852449999e-8
2.787324130429999e-8 2.857885576730000e-8 2.930233294550000e-8 3.004412503570000e-8
3.080469568200001e-8 3.158452026590000e-8 3.238408620320000e-8 3.320389324850001e-8
3.404445380799999e-8 3.490629325930001e-8 3.578995028020000e-8 3.669597718510000e-8
3.762494027030000e-8 3.857742016800001e-8 3.955401220909999e-8 4.055532679540001e-8
4.158198978110001e-8 4.263464286410001e-8 4.371394398670000e-8 4.482056774730000e-8
4.595520582180001e-8 4.711856739590001e-8 4.831137960850000e-8 4.953438800600001e-8
5.078835700840000e-8 5.207407038729999e-8 5.339233175539999e-8 5.474396506890001e-8
5.612981514259998e-8 5.755074817790002e-8 5.900765230430000e-8 6.050143813420000e-8
6.203303933250000e-8 6.360341319969999e-8 6.521354127060000e-8 6.686442992770001e-8
6.855711103010000e-8 7.029264255870000e-8 7.207210927700000e-8 7.389662340980001e-8
7.576732533780000e-8 7.768538431050001e-8 7.965199917730001e-8 8.166839913650001e-8
8.373584450370000e-8 8.585562749949998e-8 8.802907305739998e-8 9.025753965149999e-8
9.254242014600001e-8 9.488514266559999e-8 9.728717148820001e-8 9.975000795990001e-8
1.022751914340000e-7 1.048643002310000e-7 1.075189526310000e-7 1.102408078750000e-7
1.130315672130000e-7 1.158929749600000e-7 1.188268195890000e-7 1.218349348490000e-7
1.249192009080000e-7 1.280815455350000e-7 1.313239452970000e-7 1.346484268000000e-7
1.380570679530000e-7 1.415519992680000e-7 1.451354051900000e-7 1.488095254640000e-7
1.525766565370000e-7 1.564391529860000e-7 1.603994289990000e-7 1.644599598760000e-7
1.686232835820000e-7 1.728920023290000e-7 1.772687842050000e-7 1.817563648430000e-7
1.863575491250000e-7 1.910752129420000e-7 1.959123049860001e-7 2.008718485990001e-7
2.059569436570000e-7 2.111707685080000e-7 2.165165819640000e-7 2.219977253320000e-7
2.276176245050000e-7 2.333797921030000e-7 2.392878296680001e-7 2.453454299160000e-7
2.515563790440000e-7 2.579245590989999e-7 2.644539503979999e-7 2.711486340260000e-7
2.780127943760000e-7 2.850507217730000e-7 2.922668151509999e-7 2.996655848010000e-7
3.072516551980001e-7 3.150297678799999e-7 3.230047844230000e-7 3.311816894710000e-7
3.395655938550000e-7 3.481617377899999e-7 3.569754941440000e-7 3.660123718020000e-7
3.752780191080001e-7 3.847782273920000e-7 3.945189345930000e-7 4.045062289720000e-7
4.147463529109999e-7 4.252457068220000e-7 4.360108531430001e-7 4.470485204400000e-7
4.583656076150000e-7 4.699691882160001e-7 4.818665148590001e-7 4.940650237590000e-7
5.065723393820000e-7 5.193962792079999e-7 5.325448586159998e-7 5.460262958969999e-7
5.598490173870000e-7 5.740216627370000e-7 5.885530903130000e-7 6.034523827300000e-7
6.187288525289999e-7 6.343920480029999e-7 6.504517591580000e-7 6.669180238360001e-7
6.838011339900001e-7 7.011116421109999e-7 7.188603678320000e-7 7.370584046839999e-7
7.557171270319998e-7 7.748481971860000e-7 7.944635726860000e-7 8.145755137799998e-7
8.351965910879999e-7 8.563396934529999e-7 8.780180360030002e-7 9.002451684070001e-7
9.230349833460000e-7 9.464017251980000e-7 9.703599989360001e-7 9.949247792610000e-7
1.020111419960000e-6 1.045935663510000e-6 1.072413650890000e-6 1.099561931710000e-6
1.127397474540000e-6 1.155937677480000e-6 1.185200379110000e-6 1.215203869550000e-6
1.245966901970000e-6 1.277508704260000e-6 1.309848991080000e-6 1.343007976160000e-6
1.377006384940000e-6 1.411865467540000e-6 1.447607012020000e-6 1.484253358000000e-6
1.521827410640000e-6 1.560352654960000e-6 1.599853170480000e-6 1.640353646310000e-6
1.681879396570000e-6 1.724456376210000e-6 1.768111197210001e-6 1.812871145270000e-6
1.858764196800000e-6 1.905819036470000e-6 1.954065075080000e-6 2.003532467970000e-6
2.054252133870000e-6 2.106255774220000e-6 2.159575893000000e-6 2.214245817020000e-6
2.270299716750000e-6 2.327772627700000e-6 2.386700472320000e-6 2.447120082440000e-6
2.509069222260000e-6 2.572586612030001e-6 2.637711952170000e-6 2.704485948150000e-6
2.772950335880000e-6 2.843147907839999e-6 2.915122539800000e-6 2.988919218240000e-6
3.064584068490000e-6 3.142164383540000e-6 3.221708653610000e-6 3.303266596470000e-6
3.386889188490000e-6 3.472628696500001e-6 3.560538710490001e-6 3.650674177070000e-6
3.743091433860001e-6 3.837848244640000e-6 3.935003835510000e-6 4.034618931870000e-6
4.136755796400000e-6 4.241478267970001e-6 4.348851801520000e-6 4.458943509020000e-6
4.571822201370001e-6 4.687558431409999e-6 4.806224538069999e-6 4.927894691509999e-6
5.052644939560000e-6 5.180553255170000e-6 5.311699585210000e-6 5.446165900400000e-6
5.584036246570000e-6 5.725396797159999e-6 5.870335907130000e-6 6.018944168140000e-6
6.171314465180000e-6 6.327542034660000e-6 6.487724523900001e-6 6.651962052150001e-6
6.820357273220000e-6 6.993015439610000e-6 7.170044468299999e-6 7.351555008180001e-6
7.537660509249999e-6 7.728477293510000e-6 7.924124627670002e-6 8.124724797670000e-6
8.330403185150001e-6 8.541288345800002e-6 8.757512089710000e-6 8.979209563750000e-6
9.206519336069999e-6 9.439583482680002e-6 9.678547676239999e-6 9.923561277170000e-6
1.017477742690000e-5 1.043235314380000e-5 1.069644942100000e-5 1.096723132730000e-5
1.124486811010000e-5 1.152953330160000e-5 1.182140482670000e-5 1.212066511470000e-5
1.242750121290000e-5 1.274210490390000e-5 1.306467282530000e-5 1.339540659250000e-5
1.373451292490000e-5 1.408220377490000e-5 1.443869646070000e-5 1.480421380180000e-5
1.517898425850000e-5 1.556324207440000e-5 1.595722742330000e-5 1.636118655880000e-5
1.677537196840000e-5 1.720004253160000e-5 1.763546368140001e-5 1.808190757000000e-5
1.853965323940000e-5 1.900898679560000e-5 1.949020158740000e-5 1.998359838960000e-5
2.048948559140000e-5 2.100817938860000e-5 2.154000398180000e-5 2.208529177870000e-5
2.264438360190000e-5 2.321762890200000e-5 2.380538597600000e-5 2.440802219110000e-5
2.502591421460000e-5 2.565944824920000e-5 2.630902027420000e-5 2.697503629330000e-5
2.765791258820000e-5 2.835807597890001e-5 2.907596409010000e-5 2.981202562540000e-5
3.056672064720000e-5 3.134052086440000e-5 3.213390992740000e-5 3.294738373010000e-5
3.378145072020000e-5 3.463663221670000e-5 3.551346273580000e-5 3.641249032520000e-5
3.733427690640001e-5 3.827939862600000e-5 3.924844621580000e-5 4.024202536209999e-5
4.126075708430000e-5 4.230527812290000e-5 4.337624133740000e-5 4.447431611470000e-5
4.560018878740001e-5 4.675456306250000e-5 4.793816046150000e-5 4.915172077130000e-5
5.039600250660000e-5 5.167178338400000e-5 5.297986080810001e-5 5.432105236980000e-5
5.569619635750000e-5 5.710615228110000e-5 5.855180140880000e-5 6.003404731840001e-5
6.155381646179999e-5 6.311205874430000e-5 6.470974811790001e-5 6.634788319060001e-5
6.802748785009999e-5 6.974961190400000e-5 7.151533173589999e-5 7.332575097819999e-5
7.518200120170000e-5 7.708524262340001e-5 7.903666483110000e-5 8.103748752710001e-5
8.308896129090000e-5 8.519236836019999e-5 8.734902343300000e-5 8.956027448890001e-5