
     Program PWSCF v.6.6 starts on  6Mar2023 at 16:21:52 

     This program is part of the open-source Quantum ESPRESSO suite
     for quantum simulation of materials; please cite
         "P. Giannozzi et al., J. Phys.:Condens. Matter 21 395502 (2009);
         "P. Giannozzi et al., J. Phys.:Condens. Matter 29 465901 (2017);
          URL http://www.quantum-espresso.org", 
     in publications or presentations arising from this work. More details at
     http://www.quantum-espresso.org/quote

     Parallel version (MPI), running on    24 processors

     MPI processes distributed on     1 nodes
     R & G space division:  proc/nbgrp/npool/nimage =      24
     Fft bands division:     nmany     =       1
     Reading input from INCAR-scf.pw

     Current dimensions of program PWSCF are:
     Max number of different atomic species (ntypx) = 10
     Max number of k-points (npk) =  40000
     Max angular momentum in pseudopotentials (lmaxx) =  3

     Subspace diagonalization in iterative solution of the eigenvalue problem:
     a serial algorithm will be used

 
     Parallelization info
     --------------------
     sticks:   dense  smooth     PW     G-vecs:    dense   smooth      PW
     Min         338     203     56                14251     6623     959
     Max         340     204     57                14254     6625     961
     Sum        8147    4873   1353               342045   158977   23033
 


     bravais-lattice index     =            0
     lattice parameter (alat)  =      12.1557  a.u.
     unit-cell volume          =    2532.0349 (a.u.)^3
     number of atoms/cell      =           32
     number of atomic types    =            3
     number of electrons       =       128.00
     number of Kohn-Sham states=           77
     kinetic-energy cutoff     =      60.0000  Ry
     charge density cutoff     =     400.0000  Ry
     convergence threshold     =      1.0E-10
     mixing beta               =       0.7000
     number of iterations used =            8  plain     mixing
     Exchange-correlation= LDA
                           (   1   1   0   0   0   0   0)

     celldm(1)=  12.155663  celldm(2)=   0.000000  celldm(3)=   0.000000
     celldm(4)=   0.000000  celldm(5)=   0.000000  celldm(6)=   0.000000

     crystal axes: (cart. coord. in units of alat)
               a(1) = (   1.000000   0.000000   0.000000 )  
               a(2) = (   0.000000   1.732079   0.000000 )  
               a(3) = (   0.000000   0.000000   0.813890 )  

     reciprocal axes: (cart. coord. in units 2 pi/alat)
               b(1) = (  1.000000  0.000000  0.000000 )  
               b(2) = (  0.000000  0.577341  0.000000 )  
               b(3) = (  0.000000  0.000000  1.228667 )  


     PseudoPot. # 1 for Al read from file:
     ./Al.pz-n-rrkjus_psl.0.1.UPF
     MD5 check sum: 3b788946f5b2ec323a58a29a5ff2368a
     Pseudo is Ultrasoft + core correction, Zval =  3.0
     Generated using "atomic" code by A. Dal Corso v.5.0.2 svn rev. 9415
     Using radial grid of 1135 points,  4 beta functions with: 
                l(1) =   0
                l(2) =   0
                l(3) =   1
                l(4) =   1
     Q(r) pseudized with 0 coefficients 


     PseudoPot. # 2 for N  read from file:
     ./N.pz-n-rrkjus_psl.0.1.UPF
     MD5 check sum: 5663b752f1eef59ba9d503062cb6a42c
     Pseudo is Ultrasoft + core correction, Zval =  5.0
     Generated using "atomic" code by A. Dal Corso v.5.0.2 svn rev. 9415
     Using radial grid of 1085 points,  4 beta functions with: 
                l(1) =   0
                l(2) =   0
                l(3) =   1
                l(4) =   1
     Q(r) pseudized with 0 coefficients 


     PseudoPot. # 3 for B  read from file:
     ./B.pz-n-rrkjus_psl.0.1.UPF
     MD5 check sum: afbcbde2cf54223ea3a4e9251853ad92
     Pseudo is Ultrasoft + core correction, Zval =  3.0
     Generated using "atomic" code by A. Dal Corso v.5.0.2 svn rev. 9415
     Using radial grid of 1059 points,  4 beta functions with: 
                l(1) =   0
                l(2) =   0
                l(3) =   1
                l(4) =   1
     Q(r) pseudized with 0 coefficients 


     atomic species   valence    mass     pseudopotential
        Al             3.00    26.98154     Al( 1.00)
        N              5.00    14.00674     N ( 1.00)
        B              3.00    10.81100     B ( 1.00)

     No symmetry found



   Cartesian axes

     site n.     atom                  positions (alat units)
         1           Al  tau(   1) = (   0.1316730   0.2712142   0.4402537  )
         2           N   tau(   2) = (   0.1316730   0.2712142   0.7464490  )
         3           Al  tau(   3) = (   0.1316730   0.5598929   0.0329504  )
         4           N   tau(   4) = (   0.1316730   0.5598929   0.3398619  )
         5           Al  tau(   5) = (   0.3816730   0.7042323   0.4402537  )
         6           N   tau(   6) = (   0.3816730   0.7042323   0.7464490  )
         7           Al  tau(   7) = (   0.3816730   0.9929110   0.0329504  )
         8           N   tau(   8) = (   0.3816730   0.9929110   0.3398619  )
         9           Al  tau(   9) = (   0.1316730   1.1372503   0.4402537  )
        10           N   tau(  10) = (   0.1316730   1.1372503   0.7464490  )
        11           Al  tau(  11) = (   0.1316730   1.4259291   0.0329504  )
        12           N   tau(  12) = (   0.1316730   1.4259291   0.3398619  )
        13           Al  tau(  13) = (   0.3816730   1.5702684   0.4402537  )
        14           N   tau(  14) = (   0.3816730   1.5702684   0.7464490  )
        15           Al  tau(  15) = (   0.3816730   0.1268748   0.0329504  )
        16           N   tau(  16) = (   0.3816730   0.1268748   0.3398619  )
        17           Al  tau(  17) = (   0.6316730   0.2712142   0.4402537  )
        18           N   tau(  18) = (   0.6316730   0.2712142   0.7464490  )
        19           Al  tau(  19) = (   0.6316730   0.5598929   0.0329504  )
        20           N   tau(  20) = (   0.6316730   0.5598929   0.3398619  )
        21           B   tau(  21) = (   0.8816730   0.7042323   0.4402537  )
        22           N   tau(  22) = (   0.8816730   0.7042323   0.7464490  )
        23           Al  tau(  23) = (   0.8816730   0.9929110   0.0329504  )
        24           N   tau(  24) = (   0.8816730   0.9929110   0.3398619  )
        25           B   tau(  25) = (   0.6316730   1.1372503   0.4402537  )
        26           N   tau(  26) = (   0.6316730   1.1372503   0.7464490  )
        27           B   tau(  27) = (   0.6316730   1.4259291   0.0329504  )
        28           N   tau(  28) = (   0.6316730   1.4259291   0.3398619  )
        29           B   tau(  29) = (   0.8816730   1.5702684   0.4402537  )
        30           N   tau(  30) = (   0.8816730   1.5702684   0.7464490  )
        31           Al  tau(  31) = (   0.8816730   0.1268748   0.0329504  )
        32           N   tau(  32) = (   0.8816730   0.1268748   0.3398619  )

     number of k points=    46  Gaussian smearing, width (Ry)=  0.0100
                       cart. coord. in units 2pi/alat
        k(    1) = (   0.0000000   0.0000000   0.0000000), wk =   0.0222222
        k(    2) = (   0.0000000   0.0000000   0.2047778), wk =   0.0444444
        k(    3) = (   0.0000000   0.0000000   0.4095556), wk =   0.0444444
        k(    4) = (   0.0000000   0.0000000  -0.6143333), wk =   0.0222222
        k(    5) = (   0.0000000   0.1924469   0.0000000), wk =   0.0444444
        k(    6) = (   0.0000000   0.1924469   0.2047778), wk =   0.0444444
        k(    7) = (   0.0000000   0.1924469   0.4095556), wk =   0.0444444
        k(    8) = (   0.0000000   0.1924469  -0.6143333), wk =   0.0444444
        k(    9) = (   0.2000000   0.0000000   0.0000000), wk =   0.0444444
        k(   10) = (   0.2000000   0.0000000   0.2047778), wk =   0.0444444
        k(   11) = (   0.2000000   0.0000000   0.4095556), wk =   0.0444444
        k(   12) = (   0.2000000   0.0000000  -0.6143333), wk =   0.0444444
        k(   13) = (   0.2000000   0.1924469   0.0000000), wk =   0.0444444
        k(   14) = (   0.2000000   0.1924469   0.2047778), wk =   0.0444444
        k(   15) = (   0.2000000   0.1924469   0.4095556), wk =   0.0444444
        k(   16) = (   0.2000000   0.1924469  -0.6143333), wk =   0.0444444
        k(   17) = (   0.4000000   0.0000000   0.0000000), wk =   0.0444444
        k(   18) = (   0.4000000   0.0000000   0.2047778), wk =   0.0444444
        k(   19) = (   0.4000000   0.0000000   0.4095556), wk =   0.0444444
        k(   20) = (   0.4000000   0.0000000  -0.6143333), wk =   0.0444444
        k(   21) = (   0.4000000   0.1924469   0.0000000), wk =   0.0444444
        k(   22) = (   0.4000000   0.1924469   0.2047778), wk =   0.0444444
        k(   23) = (   0.4000000   0.1924469   0.4095556), wk =   0.0444444
        k(   24) = (   0.4000000   0.1924469  -0.6143333), wk =   0.0444444
        k(   25) = (   0.0000000  -0.1924469   0.2047778), wk =   0.0444444
        k(   26) = (   0.0000000  -0.1924469   0.4095556), wk =   0.0444444
        k(   27) = (  -0.2000000   0.0000000   0.2047778), wk =   0.0444444
        k(   28) = (  -0.2000000   0.0000000   0.4095556), wk =   0.0444444
        k(   29) = (  -0.2000000   0.1924469   0.0000000), wk =   0.0444444
        k(   30) = (  -0.2000000  -0.1924469   0.2047778), wk =   0.0444444
        k(   31) = (  -0.2000000   0.1924469  -0.2047778), wk =   0.0444444
        k(   32) = (   0.2000000  -0.1924469  -0.2047778), wk =   0.0444444
        k(   33) = (  -0.2000000  -0.1924469   0.4095556), wk =   0.0444444
        k(   34) = (  -0.2000000   0.1924469  -0.4095556), wk =   0.0444444
        k(   35) = (   0.2000000  -0.1924469  -0.4095556), wk =   0.0444444
        k(   36) = (  -0.2000000   0.1924469   0.6143333), wk =   0.0444444
        k(   37) = (  -0.4000000   0.0000000   0.2047778), wk =   0.0444444
        k(   38) = (  -0.4000000   0.0000000   0.4095556), wk =   0.0444444
        k(   39) = (  -0.4000000   0.1924469   0.0000000), wk =   0.0444444
        k(   40) = (  -0.4000000  -0.1924469   0.2047778), wk =   0.0444444
        k(   41) = (  -0.4000000   0.1924469  -0.2047778), wk =   0.0444444
        k(   42) = (   0.4000000  -0.1924469  -0.2047778), wk =   0.0444444
        k(   43) = (  -0.4000000  -0.1924469   0.4095556), wk =   0.0444444
        k(   44) = (  -0.4000000   0.1924469  -0.4095556), wk =   0.0444444
        k(   45) = (   0.4000000  -0.1924469  -0.4095556), wk =   0.0444444
        k(   46) = (  -0.4000000   0.1924469   0.6143333), wk =   0.0444444

     Dense  grid:   342045 G-vectors     FFT dimensions: (  80, 135,  64)

     Smooth grid:   158977 G-vectors     FFT dimensions: (  60, 108,  50)

     Estimated max dynamical RAM per process >      72.13 MB

     Estimated total dynamical RAM >       1.69 GB

     Check: negative core charge=   -0.000004

     Initial potential from superposition of free atoms

     starting charge  127.97455, renormalised to  128.00000
     Starting wfcs are  128 randomized atomic wfcs

     total cpu time spent up to now is        9.9 secs

     Self-consistent Calculation

     iteration #  1     ecut=    60.00 Ry     beta= 0.70
     Davidson diagonalization with overlap
     ethr =  1.00E-02,  avg # of iterations =  2.2

     total cpu time spent up to now is       27.9 secs

     total energy              =    -412.31345482 Ry
     estimated scf accuracy    <       8.21180793 Ry

     iteration #  2     ecut=    60.00 Ry     beta= 0.70
     Davidson diagonalization with overlap
     ethr =  6.42E-03,  avg # of iterations =  3.4

     total cpu time spent up to now is       52.6 secs

     total energy              =    -414.79826709 Ry
     estimated scf accuracy    <       8.60483605 Ry

     iteration #  3     ecut=    60.00 Ry     beta= 0.70
     Davidson diagonalization with overlap
     ethr =  6.42E-03,  avg # of iterations =  1.9

     total cpu time spent up to now is       67.6 secs

     total energy              =    -415.79747536 Ry
     estimated scf accuracy    <       0.79114268 Ry

     iteration #  4     ecut=    60.00 Ry     beta= 0.70
     Davidson diagonalization with overlap
     ethr =  6.18E-04,  avg # of iterations =  3.1

     total cpu time spent up to now is       90.1 secs

     total energy              =    -416.19784728 Ry
     estimated scf accuracy    <       0.03933519 Ry

     iteration #  5     ecut=    60.00 Ry     beta= 0.70
     Davidson diagonalization with overlap
     c_bands:  1 eigenvalues not converged
     c_bands:  1 eigenvalues not converged
     c_bands:  1 eigenvalues not converged
     c_bands:  1 eigenvalues not converged
     c_bands:  2 eigenvalues not converged
     c_bands:  1 eigenvalues not converged
     c_bands:  2 eigenvalues not converged
     c_bands:  1 eigenvalues not converged
     c_bands:  1 eigenvalues not converged
     c_bands:  2 eigenvalues not converged
     c_bands:  1 eigenvalues not converged
     c_bands:  1 eigenvalues not converged
     c_bands:  1 eigenvalues not converged
     c_bands:  1 eigenvalues not converged
     c_bands:  1 eigenvalues not converged
     c_bands:  1 eigenvalues not converged
     c_bands:  1 eigenvalues not converged
     c_bands:  2 eigenvalues not converged
     c_bands:  1 eigenvalues not converged
     c_bands:  1 eigenvalues not converged
     c_bands:  2 eigenvalues not converged
     c_bands:  1 eigenvalues not converged
     c_bands:  2 eigenvalues not converged
     c_bands:  2 eigenvalues not converged
     ethr =  3.07E-05,  avg # of iterations = 18.6

     total cpu time spent up to now is      142.2 secs

     total energy              =    -416.23370297 Ry
     estimated scf accuracy    <       0.13816523 Ry

     iteration #  6     ecut=    60.00 Ry     beta= 0.70
     Davidson diagonalization with overlap
     c_bands:  1 eigenvalues not converged
     c_bands:  1 eigenvalues not converged
     ethr =  3.07E-05,  avg # of iterations =  6.5

     total cpu time spent up to now is      164.1 secs

     total energy              =    -416.23052034 Ry
     estimated scf accuracy    <       0.04572540 Ry

     iteration #  7     ecut=    60.00 Ry     beta= 0.70
     Davidson diagonalization with overlap
     ethr =  3.07E-05,  avg # of iterations =  1.3

     total cpu time spent up to now is      177.9 secs

     total energy              =    -416.23112140 Ry
     estimated scf accuracy    <       0.01271892 Ry

     iteration #  8     ecut=    60.00 Ry     beta= 0.70
     Davidson diagonalization with overlap
     c_bands:  1 eigenvalues not converged
     ethr =  9.94E-06,  avg # of iterations =  9.3

     total cpu time spent up to now is      203.1 secs

     total energy              =    -416.23194004 Ry
     estimated scf accuracy    <       0.00402298 Ry

     iteration #  9     ecut=    60.00 Ry     beta= 0.70
     Davidson diagonalization with overlap
     c_bands:  1 eigenvalues not converged
     c_bands:  1 eigenvalues not converged
     c_bands:  1 eigenvalues not converged
     c_bands:  1 eigenvalues not converged
     c_bands:  1 eigenvalues not converged
     c_bands:  1 eigenvalues not converged
     c_bands:  1 eigenvalues not converged
     c_bands:  1 eigenvalues not converged
     c_bands:  1 eigenvalues not converged
     c_bands:  2 eigenvalues not converged
     ethr =  3.14E-06,  avg # of iterations = 13.4

     total cpu time spent up to now is      234.0 secs

     total energy              =    -416.23306129 Ry
     estimated scf accuracy    <       0.00019938 Ry

     iteration # 10     ecut=    60.00 Ry     beta= 0.70
     Davidson diagonalization with overlap
     c_bands:  1 eigenvalues not converged
     ethr =  1.56E-07,  avg # of iterations =  6.2

     total cpu time spent up to now is      266.1 secs

     total energy              =    -416.23331423 Ry
     estimated scf accuracy    <       0.00008297 Ry

     iteration # 11     ecut=    60.00 Ry     beta= 0.70
     Davidson diagonalization with overlap
     ethr =  6.48E-08,  avg # of iterations =  1.8

     total cpu time spent up to now is      281.5 secs

     total energy              =    -416.23327153 Ry
     estimated scf accuracy    <       0.00011256 Ry

     iteration # 12     ecut=    60.00 Ry     beta= 0.70
     Davidson diagonalization with overlap
     ethr =  6.48E-08,  avg # of iterations =  2.2

     total cpu time spent up to now is      299.3 secs

     total energy              =    -416.23328271 Ry
     estimated scf accuracy    <       0.00000819 Ry

     iteration # 13     ecut=    60.00 Ry     beta= 0.70
     Davidson diagonalization with overlap
     ethr =  6.40E-09,  avg # of iterations =  4.7

     total cpu time spent up to now is      327.6 secs

     total energy              =    -416.23328869 Ry
     estimated scf accuracy    <       0.00000368 Ry

     iteration # 14     ecut=    60.00 Ry     beta= 0.70
     Davidson diagonalization with overlap
     ethr =  2.87E-09,  avg # of iterations =  2.0

     total cpu time spent up to now is      343.9 secs

     total energy              =    -416.23328779 Ry
     estimated scf accuracy    <       0.00000398 Ry

     iteration # 15     ecut=    60.00 Ry     beta= 0.70
     Davidson diagonalization with overlap
     ethr =  2.87E-09,  avg # of iterations =  1.5

     total cpu time spent up to now is      358.1 secs

     total energy              =    -416.23328771 Ry
     estimated scf accuracy    <       0.00000115 Ry

     iteration # 16     ecut=    60.00 Ry     beta= 0.70
     Davidson diagonalization with overlap
     ethr =  8.97E-10,  avg # of iterations =  2.0

     total cpu time spent up to now is      375.1 secs

     total energy              =    -416.23328781 Ry
     estimated scf accuracy    <       0.00000023 Ry

     iteration # 17     ecut=    60.00 Ry     beta= 0.70
     Davidson diagonalization with overlap
     ethr =  1.82E-10,  avg # of iterations =  3.6

     total cpu time spent up to now is      395.1 secs

     total energy              =    -416.23328779 Ry
     estimated scf accuracy    <       0.00000004 Ry

     iteration # 18     ecut=    60.00 Ry     beta= 0.70
     Davidson diagonalization with overlap
     ethr =  3.23E-11,  avg # of iterations =  4.7

     total cpu time spent up to now is      419.6 secs

     total energy              =    -416.23328781 Ry
     estimated scf accuracy    <          2.2E-09 Ry

     iteration # 19     ecut=    60.00 Ry     beta= 0.70
     Davidson diagonalization with overlap
     ethr =  1.75E-12,  avg # of iterations =  5.9

     total cpu time spent up to now is      452.7 secs

     total energy              =    -416.23328781 Ry
     estimated scf accuracy    <          1.0E-09 Ry

     iteration # 20     ecut=    60.00 Ry     beta= 0.70
     Davidson diagonalization with overlap
     ethr =  8.18E-13,  avg # of iterations =  2.0

     total cpu time spent up to now is      468.2 secs

     total energy              =    -416.23328781 Ry
     estimated scf accuracy    <          5.4E-10 Ry

     iteration # 21     ecut=    60.00 Ry     beta= 0.70
     Davidson diagonalization with overlap
     ethr =  4.25E-13,  avg # of iterations =  2.2

     total cpu time spent up to now is      486.6 secs

     End of self-consistent calculation

          k = 0.0000 0.0000 0.0000 ( 19891 PWs)   bands (ev):

    -9.4227  -8.7533  -8.7441  -7.8167  -7.7694  -7.6965  -7.6943  -7.6416
    -7.6225  -7.2793  -7.2492  -7.1435  -7.0801  -7.0675  -7.0166  -6.9614
    -0.9502  -0.6270  -0.5352  -0.3594   0.0083   0.0897   0.3269   0.5221
     0.6656   0.7283   0.8264   0.8817   1.0024   1.5087   1.5292   1.5663
     1.5986   1.6610   1.7125   1.7310   2.0252   2.0529   2.4554   2.5936
     2.8561   2.8675   2.8767   3.0524   3.1124   3.1346   3.2207   3.2921
     3.3750   3.4414   3.4493   3.5450   4.1285   4.1387   4.1782   4.2076
     4.2306   4.3990   4.4199   4.5247   4.5739   4.8436   4.8507   4.8679
     7.6983   8.8602   8.9532   9.2149   9.7454   9.8916  10.0554  10.1827
    10.2432  10.3107  10.3186  10.3595  10.6581

          k = 0.0000 0.0000 0.2048 ( 19845 PWs)   bands (ev):

    -9.3321  -8.6740  -8.6645  -7.7983  -7.7699  -7.7173  -7.6557  -7.6503
    -7.5979  -7.3987  -7.3712  -7.1851  -7.1152  -7.1091  -7.0643  -7.0066
    -0.7835  -0.7063  -0.6389  -0.3397   0.0213   0.1446   0.1665   0.3590
     0.4656   0.5509   0.6584   0.6730   0.7467   1.6194   1.6861   1.8075
     1.9092   1.9482   1.9962   2.0533   2.1520   2.1657   2.3564   2.4027
     2.8981   2.9170   2.9485   3.0360   3.0836   3.3421   3.4257   3.4648
     3.4880   3.5589   3.6944   3.7329   4.0831   4.1127   4.1306   4.1652
     4.1777   4.2084   4.3453   4.3822   4.4405   4.4981   4.7945   4.8160
     8.1287   8.8001   8.9212   9.0761   9.5465   9.7331   9.8548   9.9153
    10.0228  10.3125  10.4163  10.4499  10.7788

          k = 0.0000 0.0000 0.4096 ( 19798 PWs)   bands (ev):

    -9.0706  -8.4475  -8.4368  -8.1991  -7.7267  -7.7175  -7.6366  -7.5876
    -7.5375  -7.5120  -7.4730  -7.2987  -7.2181  -7.2143  -7.1903  -7.1287
    -0.8565  -0.7758  -0.7379  -0.2880  -0.0425  -0.0292   0.0243   0.2436
     0.3749   0.4608   0.5414   0.5663   0.6490   1.4743   1.6513   1.8326
     1.8761   2.4157   2.5320   2.5542   2.5816   2.7170   2.7749   2.7871
     2.9323   3.0561   3.0917   3.1533   3.1596   3.2023   3.5367   3.6839
     3.6996   3.7422   3.7624   3.8492   3.8686   3.8971   3.9543   4.0124
     4.0223   4.0742   4.1757   4.2541   4.3009   4.3662   4.6606   4.6815
     8.5707   8.6495   8.7877   8.9076   9.4822   9.5592   9.6444   9.8545
    10.0207  10.2591  10.3716  10.6015  10.7208

          k = 0.0000 0.0000-0.6143 ( 19820 PWs)   bands (ev):

    -8.7024  -8.6369  -8.1355  -8.1251  -8.0760  -8.0613  -7.4871  -7.4595
    -7.4526  -7.4065  -7.3889  -7.3659  -7.3480  -7.3170  -7.3005  -7.2673
    -0.9071  -0.8066  -0.6799  -0.5146  -0.2184  -0.1950  -0.0096   0.1473
     0.1833   0.4095   0.8728   1.0285   1.0751   1.2191   1.5232   1.7273
     2.0379   2.0846   2.2134   2.2767   3.0850   3.1770   3.2018   3.2931
     3.3022   3.3370   3.3885   3.4158   3.4656   3.4811   3.4924   3.5002
     3.5404   3.6195   3.6371   3.6702   3.7162   3.7924   3.8256   3.8464
     3.8827   3.9545   3.9914   4.0728   4.4261   4.4471   4.5252   4.5505
     8.7263   8.7737   8.8088   8.8784   9.3549   9.3630   9.6083   9.9334
    10.0284  10.2658  10.3380  10.4526  10.5562

          k = 0.0000 0.1924 0.0000 ( 19844 PWs)   bands (ev):

    -9.3501  -9.0966  -8.3178  -7.9006  -7.8108  -7.7517  -7.7134  -7.6497
    -7.5854  -7.4259  -7.1449  -7.1168  -7.0638  -7.0491  -7.0211  -6.9623
    -0.8859  -0.6750  -0.4743  -0.2183  -0.1236   0.1321   0.2381   0.3689
     0.6934   0.8215   0.8501   0.9131   1.0496   1.1493   1.3884   1.5095
     1.5839   1.6236   1.6391   1.7673   2.1405   2.1688   2.6033   2.6269
     2.7677   2.9290   3.0767   3.1927   3.2400   3.3383   3.3573   3.3842
     3.4578   3.5319   3.5907   3.7333   3.7535   3.9125   3.9896   4.0296
     4.0934   4.2683   4.3884   4.3924   4.6430   4.6998   4.8180   4.8437
     8.1028   8.7446   9.0977   9.2463   9.6470  10.0353  10.1096  10.2365
    10.2942  10.3774  10.4644  10.5199  10.7342

          k = 0.0000 0.1924 0.2048 ( 19856 PWs)   bands (ev):

    -9.2606  -9.0106  -8.2492  -7.8491  -7.7657  -7.7549  -7.6999  -7.6675
    -7.6057  -7.5717  -7.2096  -7.1801  -7.1128  -7.0987  -7.0695  -7.0068
    -0.7505  -0.6504  -0.5600  -0.2222  -0.0724  -0.0035   0.1016   0.2060
     0.4555   0.5729   0.6647   0.7952   0.8929   1.1584   1.5806   1.7519
     1.8240   1.8881   1.9399   1.9962   2.2712   2.3539   2.7017   2.7345
     2.8205   3.0005   3.1448   3.1997   3.2791   3.3324   3.4417   3.4975
     3.6096   3.6342   3.7307   3.7764   3.8122   3.8967   3.9072   3.9838
     4.0661   4.0902   4.1710   4.3011   4.5292   4.6296   4.6637   4.7869
     8.4166   8.8004   9.0313   9.1194   9.6074   9.8538   9.8921   9.9549
    10.1363  10.1788  10.2998  10.6082  10.8677

          k = 0.0000 0.1924 0.4096 ( 19871 PWs)   bands (ev):

    -9.0024  -8.7632  -8.1493  -8.0525  -7.9514  -7.7033  -7.6371  -7.5778
    -7.5505  -7.4852  -7.4321  -7.2984  -7.2619  -7.2142  -7.1928  -7.1285
    -0.7981  -0.6951  -0.6510  -0.3031  -0.0832   0.0007   0.0563   0.2420
     0.2664   0.3727   0.4459   0.5250   0.6170   0.8513   2.0317   2.0973
     2.2478   2.3450   2.5210   2.5729   2.6444   2.7681   2.8495   2.8911
     3.0189   3.0927   3.1055   3.1278   3.2207   3.2767   3.3283   3.4771
     3.5137   3.8129   3.8209   3.8641   3.9033   3.9360   3.9696   3.9729
     4.0123   4.0365   4.0612   4.1602   4.2095   4.4487   4.4599   4.6372
     8.6974   8.7679   8.8851   9.0566   9.5567   9.7149   9.7438   9.9178
     9.9707  10.0572  10.2055  10.5408  10.6916

          k = 0.0000 0.1924-0.6143 ( 19852 PWs)   bands (ev):

    -8.6400  -8.5754  -8.4177  -8.3524  -7.8006  -7.7469  -7.5196  -7.4782
    -7.4728  -7.4402  -7.4367  -7.3855  -7.3685  -7.3230  -7.3068  -7.2734
    -0.8347  -0.7136  -0.6042  -0.4974  -0.1210  -0.0471  -0.0262   0.0469
     0.0795   0.2444   0.3632   0.5095   1.3664   1.5177   1.5542   1.7222
     2.3241   2.3706   2.4980   2.5636   2.8821   2.9234   3.0479   3.1034
     3.1800   3.3085   3.3233   3.3971   3.4801   3.5074   3.5519   3.5911
     3.6385   3.6647   3.7056   3.7352   3.7476   3.7791   3.8201   3.8341
     3.8511   3.8964   4.1330   4.1502   4.2411   4.2591   4.3784   4.4936
     8.8133   8.8625   8.9215   9.0238   9.4984   9.5395   9.7587   9.8645
     9.9995  10.1633  10.2855  10.3921  10.4954

          k = 0.2000 0.0000 0.0000 ( 19882 PWs)   bands (ev):

    -9.3379  -8.6803  -8.6711  -8.2448  -7.8508  -7.8424  -7.6438  -7.5765
    -7.3946  -7.2480  -7.2178  -7.1567  -7.0926  -7.0664  -7.0381  -6.9836
    -0.8529  -0.5009  -0.4224  -0.2120   0.1433   0.2014   0.3537   0.5555
     0.7111   0.8032   0.9097   1.0178   1.1953   1.3183   1.3778   1.4027
     1.4754   1.6776   1.7184   1.7551   2.1606   2.2130   2.2414   2.4853
     2.6988   2.7749   2.8313   2.8450   2.9040   3.1293   3.2646   3.3346
     3.4088   3.4601   3.6692   3.8054   3.8907   3.9271   4.0103   4.1177
     4.1686   4.2774   4.3258   4.3511   4.3769   4.4499   4.7990   4.8035
     8.1472   9.1225   9.2360   9.5083   9.7351  10.0057  10.0971  10.2451
    10.3190  10.4401  10.5736  10.7196  10.9071

          k = 0.2000 0.0000 0.2048 ( 19845 PWs)   bands (ev):

    -9.2485  -8.6024  -8.5930  -8.1783  -7.8012  -7.7914  -7.7391  -7.6055
    -7.3851  -7.3499  -7.3350  -7.2187  -7.1308  -7.1062  -7.0859  -7.0394
    -0.6892  -0.5832  -0.4990  -0.2221   0.1182   0.2161   0.2368   0.4874
     0.5253   0.6642   0.7196   0.7589   1.0950   1.1684   1.6148   1.7406
     1.7788   1.8304   1.9057   2.0173   2.1632   2.2144   2.4865   2.5773
     2.6354   2.7661   2.9014   2.9105   3.1885   3.2449   3.3594   3.4077
     3.5377   3.6214   3.6702   3.7909   3.8086   3.8762   4.0308   4.0608
     4.0916   4.1158   4.1957   4.2473   4.3657   4.3947   4.6810   4.7418
     8.4639   9.0138   9.1688   9.4132   9.7306   9.8725   9.9998  10.1458
    10.1845  10.2423  10.5734  10.6890  10.9231

          k = 0.2000 0.0000 0.4096 ( 19873 PWs)   bands (ev):

    -8.9906  -8.3806  -8.3700  -8.1352  -7.9903  -7.6960  -7.6813  -7.6375
    -7.6281  -7.4861  -7.4167  -7.3245  -7.2499  -7.2279  -7.1856  -7.1237
    -0.7520  -0.6456  -0.5687  -0.1906   0.0748   0.1412   0.1589   0.3396
     0.4709   0.5169   0.5957   0.6621   0.8740   1.1663   1.4247   1.5757
     2.0746   2.3862   2.4289   2.5031   2.5735   2.6449   2.6658   2.7153
     2.8597   3.0554   3.1075   3.1540   3.2398   3.3383   3.3790   3.4236
     3.4482   3.6268   3.7049   3.7834   3.8459   3.8929   3.9367   3.9487
     3.9802   4.0073   4.0956   4.1427   4.1891   4.2147   4.4722   4.5907
     8.7615   8.8876   9.0921   9.1985   9.6211   9.8214   9.9400  10.0531
    10.1807  10.3861  10.4981  10.7123  10.9161

          k = 0.2000 0.0000-0.6143 ( 19862 PWs)   bands (ev):

    -8.6284  -8.5636  -8.0765  -8.0660  -8.0180  -8.0035  -7.7447  -7.6921
    -7.4917  -7.4679  -7.4402  -7.4146  -7.3597  -7.3144  -7.2197  -7.1728
    -0.8090  -0.6388  -0.5441  -0.3637  -0.0671  -0.0308   0.0542   0.2586
     0.3915   0.6317   0.8433   0.9977   1.0453   1.1678   1.4555   1.5706
     1.6442   1.7265   2.6633   2.8271   2.8781   2.9610   3.0400   3.0793
     3.1872   3.2227   3.2741   3.3107   3.3404   3.4042   3.4719   3.5159
     3.5450   3.6015   3.6544   3.6797   3.7147   3.7565   3.7743   3.8179
     3.8328   3.8980   3.9206   3.9919   4.1597   4.2649   4.3365   4.4441
     8.9484   9.0073   9.0509   9.1427   9.5475   9.6070   9.8656  10.1229
    10.2778  10.4009  10.4542  10.6190  10.6706

          k = 0.2000 0.1924 0.0000 ( 19868 PWs)   bands (ev):

    -9.2666  -9.0170  -8.2546  -8.2018  -8.0360  -7.8441  -7.6370  -7.5459
    -7.4550  -7.3836  -7.1580  -7.1113  -7.0808  -7.0546  -7.0192  -6.9815
    -0.7874  -0.5893  -0.3543  -0.0635   0.0162   0.1586   0.3766   0.5564
     0.7339   0.8709   0.9171   0.9686   1.0551   1.1407   1.2978   1.4301
     1.5104   1.5931   1.6424   1.7611   2.0812   2.2818   2.5630   2.6167
     2.7641   2.8139   2.9437   2.9787   3.0164   3.0917   3.1812   3.3444
     3.4311   3.6119   3.6665   3.7784   3.8194   3.8750   3.9490   3.9668
     4.0231   4.0723   4.1605   4.2769   4.5623   4.5957   4.7656   4.7745
     8.4295   8.9711   9.3555   9.5001   9.8144   9.8426  10.1633  10.2631
    10.3586  10.5740  10.6002  10.7512  10.9184

          k = 0.2000 0.1924 0.2048 ( 19866 PWs)   bands (ev):

    -9.1783  -8.9323  -8.1879  -8.1370  -7.9762  -7.7947  -7.6990  -7.5983
    -7.5273  -7.4284  -7.2197  -7.1863  -7.1309  -7.1072  -7.0728  -7.0359
    -0.6587  -0.5563  -0.4265  -0.0860   0.0076   0.0535   0.2132   0.3584
     0.5220   0.6587   0.8333   0.9104   1.0545   1.1347   1.4212   1.5531
     1.7130   1.7640   1.8683   1.9530   2.4588   2.5375   2.6304   2.6743
     2.7837   2.8271   2.8920   2.9300   3.0519   3.2919   3.3497   3.4122
     3.5710   3.5989   3.6562   3.7303   3.7711   3.8476   3.8999   3.9416
     4.0118   4.0660   4.1292   4.1960   4.4775   4.5249   4.6199   4.7070
     8.6532   9.0161   9.2488   9.4234   9.6506   9.8999  10.0148  10.1144
    10.2708  10.3354  10.5152  10.7924  10.9902

          k = 0.2000 0.1924 0.4096 ( 19887 PWs)   bands (ev):

    -8.9238  -8.6888  -8.0874  -7.9971  -7.9553  -7.8948  -7.8064  -7.6551
    -7.4902  -7.4151  -7.4083  -7.3581  -7.3010  -7.2383  -7.1812  -7.1274
    -0.7115  -0.5870  -0.4834  -0.2160   0.0498   0.1306   0.1672   0.3251
     0.4092   0.4688   0.5572   0.6607   0.7506   0.8448   1.5404   2.0826
     2.2668   2.3420   2.4112   2.4376   2.4806   2.5840   2.6824   2.8960
     2.9578   3.0007   3.0693   3.1548   3.2045   3.2604   3.3423   3.3956
     3.5066   3.6043   3.6596   3.7322   3.8208   3.8550   3.9020   3.9649
     3.9976   4.0805   4.0949   4.1046   4.2205   4.2934   4.3508   4.5419
     8.8778   9.0115   9.0798   9.2902   9.6151   9.8705   9.9814  10.1116
    10.1944  10.2439  10.3829  10.6852  10.8233

          k = 0.2000 0.1924-0.6143 ( 19892 PWs)   bands (ev):

    -8.5676  -8.5038  -8.3500  -8.2856  -7.7625  -7.7121  -7.7076  -7.6628
    -7.5908  -7.5319  -7.4631  -7.4144  -7.3673  -7.3205  -7.2440  -7.1954
    -0.7607  -0.5653  -0.4872  -0.3531   0.0120   0.0555   0.0982   0.1834
     0.2856   0.3952   0.4800   0.5602   1.3170   1.4785   1.5116   1.6839
     1.8529   2.0168   2.5220   2.6813   2.7985   2.9384   2.9849   3.0046
     3.0893   3.1412   3.2677   3.3559   3.4049   3.4633   3.5144   3.5381
     3.5755   3.6402   3.6672   3.7014   3.7273   3.7673   3.7965   3.8495
     3.8680   3.9376   3.9668   4.0096   4.0381   4.1582   4.2769   4.3937
     8.9868   9.0610   9.1418   9.2504   9.6483   9.7400   9.9631  10.0838
    10.1883  10.2532  10.4543  10.5273  10.6440

          k = 0.4000 0.0000 0.0000 ( 19856 PWs)   bands (ev):

    -9.0932  -8.7062  -8.4740  -8.4644  -8.1643  -8.1557  -7.5026  -7.4488
    -7.2936  -7.2495  -7.2118  -7.1576  -7.1389  -7.0736  -7.0293  -7.0226
    -0.6066  -0.2992  -0.1739   0.0563   0.2443   0.4557   0.5446   0.5890
     0.7245   0.8335   0.9410   1.0860   1.1728   1.2930   1.3920   1.4860
     1.5960   1.6662   1.7497   1.7770   1.8957   2.0400   2.1049   2.3913
     2.6174   2.6989   2.7487   2.8016   2.8658   3.0025   3.0886   3.1152
     3.1756   3.2291   3.3877   3.7783   3.8387   3.8706   3.9793   4.0461
     4.0637   4.0992   4.1769   4.2228   4.2559   4.3732   4.6103   4.6514
     8.9294   9.5111   9.5656   9.7548   9.8700   9.9949  10.1294  10.3871
    10.5027  10.7013  10.8601  11.0415  11.1972

          k = 0.4000 0.0000 0.2048 ( 19879 PWs)   bands (ev):

    -9.0076  -8.6277  -8.4009  -8.3910  -8.1002  -8.0914  -7.5953  -7.4772
    -7.3717  -7.2897  -7.2762  -7.2413  -7.1982  -7.1239  -7.1118  -7.0685
    -0.4750  -0.3595  -0.2235   0.0567   0.2111   0.3811   0.4296   0.5235
     0.6739   0.7530   0.8760   0.9930   1.0890   1.3903   1.4713   1.5567
     1.6381   1.7379   1.8631   1.9000   1.9708   2.1384   2.4285   2.5171
     2.7392   2.7784   2.8308   2.8932   2.9645   3.0267   3.0327   3.0574
     3.1470   3.3084   3.4043   3.7655   3.8002   3.8551   3.9290   3.9577
     4.0346   4.0899   4.1577   4.2412   4.2802   4.3908   4.5278   4.5576
     9.0391   9.4265   9.5728   9.7521   9.8963  10.0286  10.1484  10.3446
    10.4185  10.6410  10.7576  11.0185  11.1210

          k = 0.4000 0.0000 0.4096 ( 19901 PWs)   bands (ev):

    -8.7612  -8.4036  -8.1940  -8.1829  -7.9574  -7.9191  -7.9107  -7.6903
    -7.5446  -7.5369  -7.3774  -7.3708  -7.3561  -7.2176  -7.1834  -7.1244
    -0.5458  -0.3651  -0.2374  -0.0165   0.3067   0.3717   0.4540   0.5048
     0.5956   0.6524   0.6910   0.7860   1.0390   1.1418   1.2384   1.5364
     1.7161   1.9921   2.3270   2.3429   2.4076   2.5079   2.5600   2.6048
     2.6898   2.9195   2.9622   3.0353   3.1008   3.1661   3.3054   3.3219
     3.5126   3.5236   3.6028   3.6422   3.6900   3.7393   3.7971   3.8926
     3.9165   4.0258   4.0700   4.1150   4.1560   4.1907   4.2337   4.3548
     9.1326   9.3612   9.5589   9.6325   9.9084  10.1268  10.2328  10.3673
    10.5187  10.6596  10.7888  10.8699  10.9553

          k = 0.4000 0.0000-0.6143 ( 19916 PWs)   bands (ev):

    -8.4180  -8.3565  -8.0989  -8.0365  -7.9134  -7.9040  -7.8616  -7.8457
    -7.6830  -7.6697  -7.6227  -7.6098  -7.2872  -7.2449  -7.1983  -7.1522
    -0.6270  -0.2888  -0.2721  -0.1034   0.2265   0.2755   0.3909   0.4522
     0.6940   0.7231   0.8049   0.9187   0.9953   1.1640   1.3790   1.4499
     1.5493   1.5936   1.9763   2.1491   2.8873   2.9109   2.9869   3.0577
     3.1041   3.1217   3.1505   3.2183   3.2417   3.3276   3.4070   3.4356
     3.5601   3.5973   3.6106   3.6660   3.6702   3.6863   3.7208   3.7535
     3.7598   3.8181   3.8494   3.9322   3.9652   4.0154   4.0668   4.1975
     9.3476   9.3922   9.4798   9.5721   9.8861  10.0538  10.3246  10.4678
    10.5244  10.5663  10.6448  10.8275  10.8714

          k = 0.4000 0.1924 0.0000 ( 19882 PWs)   bands (ev):

    -9.0261  -8.7890  -8.6470  -8.4363  -8.0764  -7.8257  -7.6953  -7.5084
    -7.4068  -7.2810  -7.2409  -7.1449  -7.0719  -7.0517  -7.0025  -6.9836
    -0.5551  -0.3542  -0.1576   0.1294   0.2378   0.3514   0.4879   0.6365
     0.7218   0.8808   0.9740   1.0606   1.1068   1.3137   1.3870   1.5073
     1.5536   1.6749   1.8074   1.9031   1.9625   2.0336   2.1680   2.2391
     2.4236   2.5238   2.5974   2.8893   3.0182   3.1474   3.1950   3.2623
     3.3037   3.3489   3.4345   3.4817   3.5386   3.6228   3.6811   3.8111
     4.1087   4.2947   4.3819   4.4011   4.4487   4.4881   4.6062   4.6657
     8.9958   9.3666   9.5230   9.6744   9.9127  10.0171  10.1533  10.2730
    10.4387  10.6474  10.7299  11.0738  11.2368

          k = 0.4000 0.1924 0.2048 ( 19878 PWs)   bands (ev):

    -8.9417  -8.7084  -8.5699  -8.3637  -8.0155  -7.7749  -7.6534  -7.5654
    -7.4583  -7.4070  -7.3540  -7.2409  -7.1363  -7.0955  -7.0571  -7.0322
    -0.4526  -0.3505  -0.2145   0.1528   0.1868   0.3196   0.4059   0.5074
     0.5655   0.7231   0.8084   0.9419   1.2283   1.3908   1.5295   1.6510
     1.7669   1.8779   1.9087   2.0040   2.1064   2.2070   2.2655   2.3700
     2.4231   2.5077   2.5579   2.7377   2.9699   3.0753   3.2045   3.2634
     3.3155   3.4185   3.4804   3.5362   3.6289   3.7092   3.7774   3.9796
     4.1301   4.2490   4.3003   4.3302   4.3766   4.4538   4.4897   4.5872
     9.0204   9.3835   9.4452   9.6537   9.9311  10.0709  10.2148  10.2730
    10.4762  10.6465  10.8176  10.9509  11.0660

          k = 0.4000 0.1924 0.4096 ( 19870 PWs)   bands (ev):

    -8.6992  -8.4778  -8.3503  -8.1576  -7.9142  -7.8442  -7.7397  -7.6583
    -7.6267  -7.5304  -7.5047  -7.3815  -7.3197  -7.2063  -7.1965  -7.1258
    -0.5131  -0.3831  -0.2215  -0.0028   0.2869   0.3591   0.4016   0.4742
     0.5413   0.6107   0.6994   0.7365   1.0559   1.3303   1.4265   1.7212
     1.8891   2.0680   2.1413   2.2454   2.2691   2.4337   2.4749   2.5539
     2.6848   2.7029   2.8426   2.9476   3.0550   3.1507   3.2186   3.3122
     3.4029   3.4777   3.5909   3.8203   3.8499   3.9061   3.9547   3.9967
     4.0133   4.0274   4.0774   4.1030   4.1488   4.1533   4.2462   4.3883
     9.1297   9.3725   9.4573   9.5540   9.8781  10.0294  10.2914  10.4349
    10.5077  10.6502  10.7043  10.8594  10.9899

          k = 0.4000 0.1924-0.6143 ( 19882 PWs)   bands (ev):

    -8.3628  -8.3025  -8.1600  -8.1003  -8.0525  -7.9910  -7.8819  -7.8211
    -7.6207  -7.5701  -7.4606  -7.4109  -7.3720  -7.3265  -7.2614  -7.2117
    -0.5892  -0.3445  -0.2689  -0.0777   0.2406   0.2641   0.3113   0.4801
     0.5853   0.6887   0.7695   0.9877   1.1237   1.2439   1.3807   1.4917
     1.6832   1.8445   2.1135   2.2688   2.3458   2.4948   2.5296   2.6932
     3.1096   3.1492   3.2124   3.2765   3.3300   3.3934   3.4300   3.5213
     3.5764   3.6120   3.6861   3.6997   3.7226   3.7855   3.8130   3.8316
     3.8567   3.8763   3.9157   3.9263   3.9759   4.0197   4.0780   4.2089
     9.3092   9.3683   9.4768   9.5478   9.8433  10.0853  10.1950  10.3803
    10.4940  10.6150  10.7252  10.7879  10.8724

          k = 0.0000-0.1924 0.2048 ( 19856 PWs)   bands (ev):

    -9.2606  -9.0107  -8.2491  -7.8487  -7.7658  -7.7549  -7.7005  -7.6680
    -7.6050  -7.5714  -7.2104  -7.1800  -7.1127  -7.0977  -7.0702  -7.0069
    -0.7520  -0.6484  -0.5598  -0.2289  -0.0731   0.0049   0.1028   0.2060
     0.4417   0.5929   0.6913   0.8052   0.8695   1.0985   1.6511   1.6974
     1.8209   1.9179   1.9423   1.9723   2.2864   2.3686   2.6948   2.7428
     2.8314   2.9860   3.1423   3.1797   3.2892   3.3238   3.4713   3.4860
     3.6231   3.6647   3.6932   3.7573   3.7906   3.8840   3.9287   3.9825
     4.0680   4.1083   4.1728   4.2968   4.5172   4.6368   4.6744   4.7814
     8.4131   8.8034   9.0067   9.1418   9.6047   9.7753   9.8486  10.0627
    10.1882  10.2089  10.3476  10.5778  10.8445

          k = 0.0000-0.1924 0.4096 ( 19871 PWs)   bands (ev):

    -9.0024  -8.7632  -8.1496  -8.0520  -7.9514  -7.7034  -7.6372  -7.5774
    -7.5498  -7.4859  -7.4331  -7.2981  -7.2617  -7.2132  -7.1935  -7.1286
    -0.7985  -0.6985  -0.6464  -0.3055  -0.0852  -0.0019   0.0538   0.2477
     0.2855   0.3900   0.4199   0.5538   0.6033   0.8155   2.0099   2.0942
     2.3378   2.3746   2.4699   2.5752   2.6122   2.7904   2.8312   2.8680
     3.0184   3.0751   3.1337   3.1564   3.1954   3.2782   3.3671   3.4702
     3.4873   3.8024   3.8268   3.8622   3.9085   3.9473   3.9584   3.9846
     3.9957   4.0233   4.0620   4.1582   4.2177   4.4598   4.4697   4.6278
     8.6713   8.7380   8.9212   9.0557   9.5722   9.6233   9.7915   9.9435
    10.0556  10.1163  10.1949  10.5170  10.6676

          k =-0.2000 0.0000 0.2048 ( 19845 PWs)   bands (ev):

    -9.2485  -8.6024  -8.5930  -8.1784  -7.8025  -7.7913  -7.7377  -7.6054
    -7.3803  -7.3551  -7.3350  -7.2192  -7.1305  -7.1063  -7.0854  -7.0394
    -0.6857  -0.5855  -0.5066  -0.2120   0.1142   0.2139   0.2507   0.4789
     0.5291   0.6608   0.6966   0.7751   1.0885   1.1741   1.6185   1.7352
     1.7822   1.8357   1.9203   2.0046   2.1584   2.2148   2.4872   2.5427
     2.6914   2.7450   2.8972   2.9124   3.1862   3.2575   3.3383   3.4175
     3.5395   3.6174   3.6821   3.7764   3.8220   3.8771   4.0230   4.0512
     4.0986   4.1262   4.1951   4.2425   4.3609   4.3942   4.6840   4.7425
     8.4649   9.0111   9.2289   9.3429   9.7141   9.8841   9.9842  10.1389
    10.2225  10.2843  10.5218  10.7623  10.8827

          k =-0.2000 0.0000 0.4096 ( 19873 PWs)   bands (ev):

    -8.9906  -8.3806  -8.3700  -8.1353  -7.9909  -7.6959  -7.6795  -7.6387
    -7.6268  -7.4857  -7.4186  -7.3265  -7.2479  -7.2276  -7.1852  -7.1242
    -0.7533  -0.6522  -0.5612  -0.1754   0.0641   0.1153   0.1749   0.3462
     0.4664   0.5176   0.5944   0.6659   0.8690   1.1709   1.4258   1.5792
     2.0740   2.3913   2.4064   2.5145   2.5912   2.6135   2.6800   2.7062
     2.8629   3.0662   3.1206   3.1447   3.2291   3.3500   3.3645   3.4111
     3.4595   3.6428   3.7166   3.7900   3.8479   3.8947   3.9204   3.9422
     3.9655   4.0076   4.0996   4.1549   4.1822   4.2084   4.4759   4.5914
     8.7773   8.8709   9.0938   9.1881   9.6728   9.8087   9.9252  10.0441
    10.2197  10.2867  10.5651  10.7562  10.8194

          k =-0.2000 0.1924 0.0000 ( 19868 PWs)   bands (ev):

    -9.2666  -9.0170  -8.2539  -8.2025  -8.0358  -7.8439  -7.6393  -7.5420
    -7.4580  -7.3823  -7.1585  -7.1111  -7.0802  -7.0556  -7.0181  -6.9820
    -0.7946  -0.5537  -0.3755  -0.1534   0.0641   0.2311   0.3954   0.4761
     0.7818   0.8611   0.9092   0.9844   1.0170   1.1887   1.2625   1.4377
     1.5027   1.5787   1.6444   1.7697   2.0937   2.2840   2.5593   2.6203
     2.7606   2.8303   2.9323   2.9813   3.0064   3.0650   3.1683   3.3626
     3.4426   3.6036   3.6979   3.7913   3.8191   3.8536   3.9486   3.9592
     4.0315   4.0660   4.1663   4.2723   4.5639   4.5997   4.7620   4.7712
     8.4322   8.9716   9.2952   9.5263   9.8059   9.9709  10.1308  10.2657
    10.3620  10.4944  10.6248  10.7571  10.8602

          k =-0.2000-0.1924 0.2048 ( 19866 PWs)   bands (ev):

    -9.1783  -8.9323  -8.1879  -8.1371  -7.9763  -7.7942  -7.6997  -7.5981
    -7.5265  -7.4284  -7.2201  -7.1882  -7.1304  -7.1072  -7.0711  -7.0366
    -0.6546  -0.5571  -0.4416  -0.0744   0.0050   0.0891   0.1995   0.3482
     0.5128   0.6942   0.8078   0.8692   1.0629   1.1294   1.4289   1.6280
     1.6770   1.7500   1.8749   1.9401   2.4505   2.5180   2.6598   2.6934
     2.7502   2.8297   2.8941   2.9482   3.0463   3.3095   3.3462   3.4086
     3.5577   3.6073   3.6517   3.7258   3.7856   3.8382   3.9021   3.9497
     4.0069   4.0797   4.1056   4.1944   4.4755   4.5202   4.6196   4.7160
     8.6676   8.9523   9.3077   9.3853   9.7169   9.9249   9.9887  10.1468
    10.2149  10.3402  10.4708  10.7836  10.9971

          k =-0.2000 0.1924-0.2048 ( 19866 PWs)   bands (ev):

    -9.1783  -8.9324  -8.1871  -8.1379  -7.9758  -7.7942  -7.6997  -7.6026
    -7.5214  -7.4301  -7.2209  -7.1843  -7.1346  -7.1054  -7.0707  -7.0372
    -0.6660  -0.5097  -0.4678  -0.1533   0.0699   0.1055   0.2261   0.2870
     0.5558   0.7013   0.7521   0.9038   1.0692   1.1284   1.4181   1.6259
     1.6521   1.7884   1.8490   1.9539   2.4700   2.5115   2.6493   2.7038
     2.7498   2.8282   2.8743   2.9486   3.0433   3.2949   3.3461   3.4166
     3.5727   3.6057   3.6457   3.7326   3.8061   3.8395   3.9025   3.9344
     4.0107   4.0630   4.1176   4.1949   4.4792   4.5208   4.6193   4.7092
     8.6669   8.9667   9.1955   9.4695   9.7670   9.8792  10.0126  10.1441
    10.2857  10.3424  10.4450  10.7361  10.9789

          k = 0.2000-0.1924-0.2048 ( 19866 PWs)   bands (ev):

    -9.1783  -8.9323  -8.1871  -8.1380  -7.9759  -7.7945  -7.6990  -7.6027
    -7.5210  -7.4300  -7.2208  -7.1857  -7.1348  -7.1048  -7.0703  -7.0372
    -0.6590  -0.5139  -0.4785  -0.1381   0.0582   0.1144   0.2222   0.2806
     0.5683   0.6658   0.7868   0.9128   1.0351   1.1645   1.4059   1.5587
     1.7231   1.7897   1.8624   1.9289   2.4750   2.5326   2.6524   2.6754
     2.7380   2.8321   2.9002   2.9269   3.0463   3.2826   3.3400   3.4283
     3.5670   3.6052   3.6618   3.7344   3.8179   3.8302   3.8893   3.9412
     4.0008   4.0703   4.1300   4.1842   4.4773   4.5264   4.6255   4.7011
     8.6586   9.0234   9.2610   9.3457   9.7795   9.8611   9.9705  10.1389
    10.2638  10.3542  10.4585  10.8214  10.9982

          k =-0.2000-0.1924 0.4096 ( 19887 PWs)   bands (ev):

    -8.9238  -8.6889  -8.0879  -7.9968  -7.9562  -7.8939  -7.8057  -7.6548
    -7.4887  -7.4173  -7.4077  -7.3602  -7.3002  -7.2389  -7.1787  -7.1285
    -0.7126  -0.5937  -0.4799  -0.1942   0.0355   0.1275   0.1739   0.3249
     0.4076   0.4663   0.5657   0.6449   0.7482   0.8424   1.5423   2.1717
     2.1976   2.3523   2.3998   2.4199   2.4866   2.5477   2.6999   2.8883
     2.9631   3.0392   3.0784   3.1439   3.1935   3.2494   3.3471   3.4052
     3.5042   3.6189   3.6804   3.7152   3.8068   3.8613   3.9016   3.9707
     3.9861   4.0576   4.0932   4.1145   4.2124   4.2968   4.3489   4.5549
     8.7832   8.9662   9.2337   9.2773   9.7723   9.8507   9.8977  10.0808
    10.1594  10.2588  10.4268  10.6338  10.8296

          k =-0.2000 0.1924-0.4096 ( 19887 PWs)   bands (ev):

    -8.9238  -8.6889  -8.0875  -7.9964  -7.9557  -7.8943  -7.8067  -7.6559
    -7.4895  -7.4169  -7.4080  -7.3560  -7.3015  -7.2399  -7.1789  -7.1285
    -0.7047  -0.5873  -0.5050  -0.1931   0.0441   0.0996   0.2288   0.3372
     0.3812   0.4684   0.5369   0.6384   0.7786   0.8363   1.5418   2.1376
     2.2491   2.3306   2.3657   2.4333   2.4821   2.5658   2.7340   2.9025
     2.9526   3.0223   3.0726   3.1099   3.1924   3.2543   3.3536   3.4283
     3.4981   3.6051   3.6815   3.7284   3.8059   3.8467   3.9100   3.9803
     3.9998   4.0555   4.0776   4.1211   4.2090   4.3023   4.3487   4.5480
     8.7636   8.9914   9.1870   9.3374   9.7207   9.8288   9.9408  10.1022
    10.1711  10.2548  10.3721  10.6561  10.7967

          k = 0.2000-0.1924-0.4096 ( 19887 PWs)   bands (ev):

    -8.9238  -8.6889  -8.0875  -7.9968  -7.9569  -7.8930  -7.8065  -7.6553
    -7.4896  -7.4171  -7.4046  -7.3627  -7.2979  -7.2404  -7.1792  -7.1282
    -0.7013  -0.5932  -0.5065  -0.1775   0.0243   0.1069   0.2206   0.3316
     0.3935   0.4729   0.5295   0.6459   0.7521   0.8668   1.5445   2.0906
     2.2752   2.3297   2.3909   2.4251   2.4828   2.5782   2.7208   2.8858
     2.9655   3.0092   3.0710   3.1185   3.1765   3.2763   3.3460   3.4230
     3.5055   3.6254   3.6814   3.7129   3.8068   3.8463   3.9094   3.9722
     4.0033   4.0581   4.0917   4.1095   4.2123   4.2970   4.3615   4.5363
     8.8767   8.9963   9.1283   9.2331   9.7444   9.8535   9.9411  10.0795
    10.1357  10.2190  10.4159  10.6945  10.7771

          k =-0.2000 0.1924 0.6143 ( 19892 PWs)   bands (ev):

    -8.5676  -8.5038  -8.3502  -8.2856  -7.7560  -7.7196  -7.7080  -7.6601
    -7.5902  -7.5375  -7.4633  -7.4106  -7.3656  -7.3206  -7.2448  -7.1960
    -0.7418  -0.6118  -0.4887  -0.3109   0.0079   0.0405   0.1218   0.1753
     0.2544   0.4322   0.4581   0.5681   1.3241   1.4833   1.5002   1.6765
     1.8596   2.0121   2.5230   2.6945   2.7894   2.9201   2.9773   3.0218
     3.1089   3.1409   3.2388   3.3392   3.4409   3.4723   3.5175   3.5333
     3.5734   3.6361   3.6643   3.6880   3.7487   3.7672   3.7765   3.8595
     3.8848   3.9409   3.9505   4.0069   4.0419   4.1644   4.2738   4.3872
     8.9717   9.0698   9.1602   9.2430   9.6511   9.7540   9.9542  10.0434
    10.1335  10.3600  10.4042  10.5121  10.7063

          k =-0.4000 0.0000 0.2048 ( 19879 PWs)   bands (ev):

    -9.0075  -8.6277  -8.4009  -8.3910  -8.1003  -8.0913  -7.5951  -7.4767
    -7.3727  -7.2884  -7.2752  -7.2423  -7.2002  -7.1233  -7.1110  -7.0686
    -0.4703  -0.3650  -0.2340   0.0816   0.2237   0.3525   0.4211   0.5288
     0.6708   0.7754   0.8712   0.9910   1.0726   1.3740   1.4861   1.5574
     1.6633   1.7297   1.8682   1.8964   1.9624   2.1368   2.4305   2.5289
     2.7185   2.7726   2.8657   2.9035   2.9217   3.0000   3.0384   3.0867
     3.1439   3.3173   3.4059   3.7571   3.8234   3.8476   3.9127   3.9536
     4.0518   4.0818   4.1633   4.2375   4.2802   4.3835   4.5331   4.5582
     9.0498   9.4134   9.5635   9.7570   9.9039  10.0643  10.1273  10.2976
    10.4455  10.6610  10.7427  11.0227  11.1568

          k =-0.4000 0.0000 0.4096 ( 19901 PWs)   bands (ev):

    -8.7612  -8.4037  -8.1939  -8.1829  -7.9613  -7.9155  -7.9100  -7.6904
    -7.5441  -7.5373  -7.3785  -7.3758  -7.3501  -7.2181  -7.1833  -7.1242
    -0.5476  -0.3700  -0.2276  -0.0079   0.2940   0.3533   0.4549   0.5228
     0.6055   0.6467   0.6986   0.7712   1.0410   1.1367   1.2383   1.5495
     1.7150   1.9909   2.3051   2.3486   2.4334   2.4979   2.5682   2.5881
     2.6877   2.8938   2.9803   3.0535   3.1123   3.1674   3.2612   3.3446
     3.5149   3.5484   3.6111   3.6187   3.6884   3.7305   3.8075   3.8827
     3.9271   4.0166   4.0682   4.1242   4.1473   4.1800   4.2462   4.3561
     9.1911   9.2544   9.5383   9.7345  10.0059  10.0529  10.1590  10.3738
    10.4975  10.6586  10.7883  10.8691  10.9555

          k =-0.4000 0.1924 0.0000 ( 19882 PWs)   bands (ev):

    -9.0261  -8.7892  -8.6468  -8.4362  -8.0763  -7.8264  -7.6957  -7.5048
    -7.4110  -7.2793  -7.2409  -7.1454  -7.0755  -7.0453  -7.0072  -6.9817
    -0.5628  -0.3118  -0.1901   0.0657   0.2959   0.3732   0.4675   0.6268
     0.7979   0.8447   0.9411   1.0542   1.1068   1.3084   1.4220   1.4956
     1.5620   1.6503   1.8101   1.9140   1.9725   2.0296   2.1641   2.2164
     2.4540   2.5063   2.5961   2.8777   3.0466   3.1548   3.1802   3.2338
     3.3170   3.3688   3.4400   3.4470   3.5341   3.6506   3.6909   3.7979
     4.1150   4.2931   4.3698   4.3907   4.4649   4.4978   4.6026   4.6606
     8.9996   9.3454   9.5225   9.7098   9.8768  10.0160  10.1716  10.2819
    10.5243  10.6026  10.7080  11.0195  11.1866

          k =-0.4000-0.1924 0.2048 ( 19878 PWs)   bands (ev):

    -8.9417  -8.7084  -8.5700  -8.3637  -8.0155  -7.7751  -7.6528  -7.5659
    -7.4575  -7.4064  -7.3556  -7.2410  -7.1357  -7.0958  -7.0575  -7.0317
    -0.4493  -0.3496  -0.2333   0.1787   0.1950   0.3306   0.4207   0.4636
     0.5649   0.7460   0.8199   0.9068   1.2000   1.3441   1.5781   1.7029
     1.7982   1.8428   1.9031   1.9759   2.0833   2.2279   2.2779   2.3754
     2.4269   2.4898   2.5833   2.7469   2.9492   3.0789   3.1915   3.2744
     3.3108   3.4047   3.4833   3.5485   3.6237   3.7138   3.7746   3.9821
     4.1423   4.2245   4.3160   4.3491   4.3604   4.4400   4.4857   4.5977
     9.0440   9.2620   9.5147   9.6840   9.9047  10.0774  10.2554  10.3416
    10.4682  10.5903  10.7381  10.9854  11.1386

          k =-0.4000 0.1924-0.2048 ( 19878 PWs)   bands (ev):

    -8.9416  -8.7086  -8.5698  -8.3636  -8.0153  -7.7761  -7.6536  -7.5623
    -7.4618  -7.4054  -7.3542  -7.2407  -7.1382  -7.0923  -7.0592  -7.0317
    -0.4613  -0.3094  -0.2522   0.0925   0.2635   0.3461   0.3754   0.5102
     0.5994   0.7059   0.8128   0.8976   1.2114   1.3726   1.6001   1.6610
     1.7767   1.8316   1.9134   1.9882   2.1058   2.1825   2.2910   2.3693
     2.4479   2.5001   2.5727   2.7363   2.9508   3.0891   3.1839   3.2846
     3.3480   3.3769   3.4551   3.5388   3.6288   3.7293   3.7798   3.9773
     4.1537   4.2297   4.2936   4.3491   4.3705   4.4457   4.4853   4.5906
     9.0263   9.3063   9.4754   9.6627   9.9395  10.0503  10.2734  10.3755
    10.5368  10.6059  10.7343  10.8496  11.0809

          k = 0.4000-0.1924-0.2048 ( 19878 PWs)   bands (ev):

    -8.9416  -8.7087  -8.5698  -8.3636  -8.0152  -7.7764  -7.6539  -7.5618
    -7.4613  -7.4054  -7.3537  -7.2422  -7.1380  -7.0920  -7.0591  -7.0316
    -0.4550  -0.3187  -0.2538   0.1046   0.2552   0.3425   0.3773   0.4985
     0.6342   0.7004   0.7745   0.9007   1.2619   1.3832   1.5457   1.6582
     1.7468   1.8946   1.9253   1.9762   2.1246   2.1889   2.2467   2.3830
     2.4381   2.4916   2.5604   2.7308   2.9699   3.0777   3.2044   3.2886
     3.3337   3.3956   3.4422   3.5405   3.6425   3.7207   3.7779   3.9780
     4.1378   4.2408   4.2927   4.3424   4.3626   4.4625   4.4913   4.5834
     9.0233   9.3558   9.5390   9.5944   9.9011  10.0806  10.1449  10.3836
    10.4961  10.6313  10.7754  10.9298  11.0409

          k =-0.4000-0.1924 0.4096 ( 19870 PWs)   bands (ev):

    -8.6992  -8.4777  -8.3505  -8.1578  -7.9146  -7.8433  -7.7391  -7.6591
    -7.6262  -7.5314  -7.5038  -7.3811  -7.3207  -7.2063  -7.1968  -7.1252
    -0.5182  -0.3822  -0.2190   0.0096   0.2723   0.3702   0.4164   0.4808
     0.5387   0.6187   0.6749   0.7191   1.0313   1.3555   1.4345   1.7207
     1.8714   2.0607   2.1659   2.2350   2.3117   2.4220   2.4597   2.5753
     2.6661   2.7250   2.8258   2.9115   3.0700   3.1478   3.2013   3.3358
     3.4037   3.4926   3.5961   3.8201   3.8531   3.9171   3.9458   3.9754
     3.9876   4.0414   4.0720   4.1123   4.1492   4.1566   4.2349   4.4044
     9.0676   9.2647   9.5724   9.6680   9.9297  10.0041  10.2527  10.4204
    10.5139  10.5993  10.7786  10.8852  10.9778

          k =-0.4000 0.1924-0.4096 ( 19870 PWs)   bands (ev):

    -8.6992  -8.4781  -8.3501  -8.1574  -7.9145  -7.8427  -7.7428  -7.6608
    -7.6229  -7.5274  -7.5057  -7.3835  -7.3200  -7.2059  -7.1960  -7.1259
    -0.5148  -0.3789  -0.2324   0.0055   0.2876   0.3479   0.4550   0.4867
     0.5461   0.6126   0.6347   0.7171   1.0541   1.3642   1.4316   1.6971
     1.8715   2.0581   2.1560   2.2410   2.3416   2.3967   2.4632   2.6099
     2.6701   2.7186   2.8052   2.8977   3.0765   3.1304   3.2008   3.3512
     3.4211   3.4824   3.5977   3.8085   3.8712   3.8907   3.9596   3.9616
     4.0081   4.0392   4.0718   4.1202   4.1450   4.1532   4.2405   4.3968
     9.0344   9.3610   9.5307   9.6120   9.9035  10.0616  10.2493  10.4367
    10.5604  10.6139  10.7116  10.7633  10.9794

          k = 0.4000-0.1924-0.4096 ( 19870 PWs)   bands (ev):

    -8.6991  -8.4782  -8.3503  -8.1574  -7.9142  -7.8427  -7.7423  -7.6604
    -7.6232  -7.5304  -7.5049  -7.3799  -7.3222  -7.2057  -7.1961  -7.1260
    -0.5106  -0.3858  -0.2305   0.0102   0.2819   0.3328   0.4586   0.4894
     0.5446   0.6147   0.6451   0.7115   1.0844   1.3249   1.4382   1.7234
     1.8774   2.0746   2.1459   2.2282   2.2855   2.3788   2.4823   2.6280
     2.6630   2.7123   2.8165   2.9336   3.0764   3.1227   3.2220   3.3264
     3.4310   3.4658   3.5893   3.8068   3.8606   3.9095   3.9545   3.9898
     4.0064   4.0315   4.0800   4.0987   4.1374   4.1675   4.2502   4.3839
     9.1393   9.3316   9.4843   9.5878   9.8901   9.9814  10.2722  10.4347
    10.5711  10.6265  10.6801  10.8654  10.9316

          k =-0.4000 0.1924 0.6143 ( 19882 PWs)   bands (ev):

    -8.3626  -8.3024  -8.1616  -8.1001  -8.0507  -7.9919  -7.8819  -7.8191
    -7.6221  -7.5727  -7.4603  -7.4093  -7.3705  -7.3260  -7.2622  -7.2122
    -0.5835  -0.3635  -0.2706  -0.0523   0.2352   0.2578   0.3260   0.4687
     0.5542   0.7006   0.7985   0.9751   1.1317   1.2524   1.3695   1.4764
     1.6965   1.8425   2.1118   2.2774   2.3332   2.4841   2.5433   2.6963
     3.0977   3.1538   3.2156   3.2809   3.3346   3.3967   3.4178   3.5348
     3.5586   3.6271   3.6612   3.7057   3.7383   3.7904   3.8060   3.8201
     3.8669   3.8851   3.9021   3.9366   3.9747   4.0268   4.0716   4.2031
     9.2929   9.3983   9.4534   9.5723   9.8813   9.9833  10.1949  10.4219
    10.5091  10.5942  10.7007  10.7796  10.8633

     the Fermi energy is     6.2080 ev

!    total energy              =    -416.23328781 Ry
     estimated scf accuracy    <          6.9E-11 Ry
     smearing contrib. (-TS)   =      -0.00000000 Ry
     internal energy E=F+TS    =    -416.23328781 Ry

     The total energy is F=E-TS. E is the sum of the following terms:
     one-electron contribution =     -39.58720509 Ry
     hartree contribution      =      90.54683103 Ry
     xc contribution           =    -132.33956306 Ry
     ewald contribution        =    -334.85335069 Ry

     convergence has been achieved in  21 iterations

     Writing output data file ./wfc-out/pwscf.save/
 
     init_run     :      8.71s CPU      9.12s WALL (       1 calls)
     electrons    :    470.58s CPU    476.85s WALL (       1 calls)

     Called by init_run:
     wfcinit      :      8.16s CPU      8.26s WALL (       1 calls)
     potinit      :      0.10s CPU      0.10s WALL (       1 calls)
     hinit0       :      0.33s CPU      0.61s WALL (       1 calls)

     Called by electrons:
     c_bands      :    430.51s CPU    435.80s WALL (      21 calls)
     sum_band     :     38.38s CPU     39.18s WALL (      21 calls)
     v_of_rho     :      0.06s CPU      0.06s WALL (      22 calls)
     newd         :      1.48s CPU      1.53s WALL (      22 calls)
     mix_rho      :      0.12s CPU      0.13s WALL (      21 calls)

     Called by c_bands:
     init_us_2    :      3.61s CPU      3.74s WALL (    1978 calls)
     cegterg      :    419.67s CPU    423.73s WALL (     966 calls)

     Called by *egterg:
     cdiaghg      :     44.33s CPU     44.55s WALL (    5507 calls)
     h_psi        :    200.35s CPU    203.11s WALL (    5553 calls)
     s_psi        :     40.48s CPU     40.68s WALL (    5553 calls)
     g_psi        :      0.61s CPU      0.62s WALL (    4541 calls)

     Called by h_psi:
     h_psi:calbec :     53.36s CPU     53.79s WALL (    5553 calls)
     vloc_psi     :    105.24s CPU    107.29s WALL (    5553 calls)
     add_vuspsi   :     40.20s CPU     40.41s WALL (    5553 calls)

     General routines
     calbec       :     68.29s CPU     68.82s WALL (    6519 calls)
     fft          :      0.96s CPU      1.02s WALL (     130 calls)
     ffts         :      0.03s CPU      0.03s WALL (      43 calls)
     fftw         :    116.85s CPU    119.04s WALL (  531150 calls)
     interpolate  :      0.04s CPU      0.05s WALL (      22 calls)
 
     Parallel routines
     fft_scatt_xy :      7.38s CPU      7.50s WALL (  531323 calls)
     fft_scatt_yz :     49.72s CPU     50.78s WALL (  531323 calls)
 
     PWSCF        :   8m1.25s CPU   8m24.80s WALL

 
   This run was terminated on:  16:30:17   6Mar2023            

=------------------------------------------------------------------------------=
   JOB DONE.
=------------------------------------------------------------------------------=
