 running on  192 total cores
 distrk:  each k-point on  192 cores,    1 groups
 distr:  one band on   24 cores,    8 groups
 using from now: INCAR     
 vasp.5.4.4.18Apr17-6-g9f103f2a35 (build Oct 01 2024 10:11:53) complex          
  
 POSCAR found type information on POSCAR  S  Se Sn Pb
 POSCAR found :  4 types and      20 ions
 scaLAPACK will be used

 ----------------------------------------------------------------------------- 
|                                                                             |
|  ADVICE TO THIS USER RUNNING 'VASP/VAMP'   (HEAR YOUR MASTER'S VOICE ...):  |
|                                                                             |
|      You have a (more or less) 'large supercell' and for larger cells       |
|      it might be more efficient to use real space projection opertators     |
|      So try LREAL= Auto  in the INCAR   file.                               |
|      Mind:          For very  accurate calculation you might also keep the  |
|      reciprocal projection scheme          (i.e. LREAL=.FALSE.)             |
|                                                                             |
 ----------------------------------------------------------------------------- 

 WARNING: PSMAXN for non-local potential too small
 WARNING: PSMAXN for non-local potential too small
 LDA part: xc-table for Pade appr. of Perdew
 WARNING: stress and forces are not correct
 POSCAR, INCAR and KPOINTS ok, starting setup
 FFT: planning ...
 WAVECAR not read
 charge-density read from file: SnSe                                    
 WARNING: random wavefunctions but no delay for mixing, default for NELMDL
 entering main loop
       N       E                     dE             d eps       ncg     rms          rms(c)
DAV:   1     0.694285722787E+03    0.69429E+03   -0.34726E+04  5120   0.130E+03
DAV:   2     0.400907366077E+02   -0.65419E+03   -0.62700E+03  7216   0.190E+02
DAV:   3    -0.767683438773E+02   -0.11686E+03   -0.11428E+03  6144   0.852E+01
DAV:   4    -0.846648297459E+02   -0.78965E+01   -0.78276E+01  7328   0.232E+01
DAV:   5    -0.848500283086E+02   -0.18520E+00   -0.18476E+00  6624   0.385E+00
DAV:   6    -0.848575281274E+02   -0.74998E-02   -0.74951E-02  7576   0.739E-01
DAV:   7    -0.848577427287E+02   -0.21460E-03   -0.21454E-03  6648   0.125E-01
DAV:   8    -0.848577542880E+02   -0.11559E-04   -0.11558E-04  6912   0.263E-02
DAV:   9    -0.848577548416E+02   -0.55366E-06   -0.55354E-06  5344   0.569E-03
   1 F= -.88212879E+02 E0= -.88212879E+02  d E =0.000000E+00
