 vasp.5.4.4.18Apr17-6-g9f103f2a35 (build Sep 16 2021 13:51:27) complex          
  
 executed on             LinuxIFC date 2023.02.26  09:55:27
 running on   24 total cores
 distrk:  each k-point on   24 cores,    1 groups
 distr:  one band on NCORES_PER_BAND=  24 cores,    1 groups


--------------------------------------------------------------------------------------------------------


 INCAR:
 POTCAR:    PAW_PBE Sn 08Apr2002                  
 POTCAR:    PAW_PBE Se 06Sep2000                  

 ----------------------------------------------------------------------------- 
|                                                                             |
|           W    W    AA    RRRRR   N    N  II  N    N   GGGG   !!!           |
|           W    W   A  A   R    R  NN   N  II  NN   N  G    G  !!!           |
|           W    W  A    A  R    R  N N  N  II  N N  N  G       !!!           |
|           W WW W  AAAAAA  RRRRR   N  N N  II  N  N N  G  GGG   !            |
|           WW  WW  A    A  R   R   N   NN  II  N   NN  G    G                |
|           W    W  A    A  R    R  N    N  II  N    N   GGGG   !!!           |
|                                                                             |
|      For optimal performance we recommend to set                            |
|        NCORE= 4 - approx SQRT( number of cores)                             |
|      NCORE specifies how many cores store one orbital (NPAR=cpu/NCORE).     |
|      This setting can  greatly improve the performance of VASP for DFT.     |
|      The default,   NCORE=1            might be grossly inefficient         |
|      on modern multi-core architectures or massively parallel machines.     |
|      Do your own testing !!!!                                               |
|      Unfortunately you need to use the default for GW and RPA calculations. |
|      (for HF NCORE is supported but not extensively tested yet)             |
|                                                                             |
 ----------------------------------------------------------------------------- 

 POTCAR:    PAW_PBE Sn 08Apr2002                  
   VRHFIN =Sn: s2p2                                                             
   LEXCH  = PE                                                                  
   EATOM  =    94.0860 eV,    6.9151 Ry                                         
                                                                                
   TITEL  = PAW_PBE Sn 08Apr2002                                                
   LULTRA =        F    use ultrasoft PP ?                                      
   IUNSCR =        1    unscreen: 0-lin 1-nonlin 2-no                           
   RPACOR =    2.000    partial core radius                                     
   POMASS =  118.710; ZVAL   =    4.000    mass and valenz                      
   RCORE  =    3.000    outmost cutoff radius                                   
   RWIGS  =    2.960; RWIGS  =    1.566    wigner-seitz radius (au A)           
   ENMAX  =  103.236; ENMIN  =   77.427 eV                                      
   ICORE  =        3    local potential                                         
   LCOR   =        T    correct aug charges                                     
   LPAW   =        T    paw PP                                                  
   EAUG   =  263.585                                                            
   DEXC   =    0.000                                                            
   RMAX   =    3.078    core radius for proj-oper                               
   RAUG   =    1.300    factor for augmentation sphere                          
   RDEP   =    3.022    radius for radial grids                                 
   RDEPT  =    2.655    core radius for aug-charge                              
                                                                                
   Atomic configuration                                                         
   13 entries                                                                   
     n  l   j            E        occ.                                          
     1  0  0.50    -29007.2859   2.0000                                         
     2  0  0.50     -4378.8056   2.0000                                         
     2  1  1.50     -3930.4293   6.0000                                         
     3  0  0.50      -845.0264   2.0000                                         
     3  1  1.50      -698.5725   6.0000                                         
     3  2  2.50      -473.2839  10.0000                                         
     4  0  0.50      -133.9036   2.0000                                         
     4  1  1.50       -89.6752   6.0000                                         
     4  2  2.50       -25.8375  10.0000                                         
     5  0  0.50       -10.5484   2.0000                                         
     5  1  0.50        -3.6940   2.0000                                         
     5  2  1.50        -1.3606   0.0000                                         
     4  3  2.50        -4.0817   0.0000                                         
   Description                                                                  
     l       E           TYP  RCUT    TYP  RCUT                                 
     0    -10.5483727     23  3.000                                             
     0     27.2116520     23  3.000                                             
     1     -3.6939829     23  3.000                                             
     1      1.9821976     23  3.000                                             
     2     -1.3605826     23  3.000                                             
     3     -2.7211652     23  3.000                                             
  local pseudopotential read in
  partial core-charges read in
  partial kinetic energy density read in
  atomic valenz-charges read in
  non local Contribution for L=           0  read in
    real space projection operators read in
  non local Contribution for L=           0  read in
    real space projection operators read in
  non local Contribution for L=           1  read in
    real space projection operators read in
  non local Contribution for L=           1  read in
    real space projection operators read in
  non local Contribution for L=           2  read in
    real space projection operators read in
    PAW grid and wavefunctions read in
 
   number of l-projection  operators is LMAX  =           5
   number of lm-projection operators is LMMAX =          13
 
 POTCAR:    PAW_PBE Se 06Sep2000                  
   VRHFIN =Se: s2p4                                                             
   LEXCH  = PE                                                                  
   EATOM  =   257.1286 eV,   18.8984 Ry                                         
                                                                                
   TITEL  = PAW_PBE Se 06Sep2000                                                
   LULTRA =        F    use ultrasoft PP ?                                      
   IUNSCR =        1    unscreen: 0-lin 1-nonlin 2-no                           
   RPACOR =    1.900    partial core radius                                     
   POMASS =   78.960; ZVAL   =    6.000    mass and valenz                      
   RCORE  =    2.100    outmost cutoff radius                                   
   RWIGS  =    2.200; RWIGS  =    1.164    wigner-seitz radius (au A)           
   ENMAX  =  211.555; ENMIN  =  158.666 eV                                      
   ICORE  =        3    local potential                                         
   LCOR   =        T    correct aug charges                                     
   LPAW   =        T    paw PP                                                  
   EAUG   =  446.842                                                            
   DEXC   =    0.000                                                            
   RMAX   =    2.147    core radius for proj-oper                               
   RAUG   =    1.300    factor for augmentation sphere                          
   RDEP   =    2.177    radius for radial grids                                 
   RDEPT  =    1.928    core radius for aug-charge                              
                                                                                
   Atomic configuration                                                         
   10 entries                                                                   
     n  l   j            E        occ.                                          
     1  0  0.50    -12503.4787   2.0000                                         
     2  0  0.50     -1606.9547   2.0000                                         
     2  1  1.50     -1413.3140   6.0000                                         
     3  0  0.50      -213.4885   2.0000                                         
     3  1  1.50      -152.9538   6.0000                                         
     3  2  2.50       -53.1221  10.0000                                         
     4  0  0.50       -17.2865   2.0000                                         
     4  1  0.50        -6.5110   4.0000                                         
     4  2  2.50        -6.8029   0.0000                                         
     4  3  2.50        -6.8029   0.0000                                         
   Description                                                                  
     l       E           TYP  RCUT    TYP  RCUT                                 
     0    -17.2865377     23  2.100                                             
     0    -15.3094411     23  2.100                                             
     1     -6.5110275     23  2.100                                             
     1     -0.0695192     23  2.100                                             
     2     -6.8029130     23  2.100                                             
     3     -1.3605826      7  2.100                                             
  local pseudopotential read in
  partial core-charges read in
  partial kinetic energy density read in
  atomic valenz-charges read in
  non local Contribution for L=           0  read in
    real space projection operators read in
  non local Contribution for L=           0  read in
    real space projection operators read in
  non local Contribution for L=           1  read in
    real space projection operators read in
  non local Contribution for L=           1  read in
    real space projection operators read in
  non local Contribution for L=           2  read in
    real space projection operators read in
    PAW grid and wavefunctions read in
 
   number of l-projection  operators is LMAX  =           5
   number of lm-projection operators is LMMAX =          13
 
 WARNING: PSMAXN for non-local potential too small
          PSMAXN should be >   12.5490833729506       NTYP=           1
  PAW_PBE Sn 08Apr2002                  :
 energy of atom  1       EATOM=  -94.0860
 kinetic energy error for atom=    0.0000 (will be added to EATOM!!)
  PAW_PBE Se 06Sep2000                  :
 energy of atom  2       EATOM= -257.1286
 kinetic energy error for atom=    0.0006 (will be added to EATOM!!)
 
 
 POSCAR:  SnSe-Monolayer                         
  positions in direct lattice
  velocities in cartesian coordinates
 exchange correlation table for  LEXCH =        8
   RHO(1)=    0.500       N(1)  =     2000
   RHO(2)=  100.500       N(2)  =     4000
 


--------------------------------------------------------------------------------------------------------


 ion  position               nearest neighbor table
   1  0.581  0.750  0.569-   4 2.72   3 2.92   3 2.92   3 3.22   3 3.22
   2  0.081  0.250  0.431-   3 2.72   4 2.92   4 2.92   4 3.22   4 3.22
   3  0.033  0.250  0.567-   2 2.72   1 2.92   1 2.92   1 3.22   1 3.22
   4  0.533  0.750  0.433-   1 2.72   2 2.92   2 2.92   2 3.22   2 3.22
 
  LATTYP: Found a simple orthorhombic cell.
 ALAT       =     4.2924778572
 B/A-ratio  =     1.0188968230
 C/A-ratio  =     4.6593134934
  
  Lattice vectors:
  
 A1 = (   0.0000000000,  -4.2924778572,   0.0000000000)
 A2 = (  -4.3735920514,   0.0000000000,   0.0000000000)
 A3 = (   0.0000000000,   0.0000000000, -20.0000000000)


Analysis of symmetry for initial positions (statically):
=====================================================================
 Subroutine PRICEL returns:
 Original cell was already a primitive cell.
 

 Routine SETGRP: Setting up the symmetry group for a 
 simple orthorhombic supercell.


 Subroutine GETGRP returns: Found  4 space group operations
 (whereof  1 operations were pure point group operations)
 out of a pool of  8 trial point group operations.


The static configuration has the point symmetry C_1 .
 The point group associated with its full space group is C_2v.


Analysis of symmetry for dynamics (positions and initial velocities):
=====================================================================
 Subroutine PRICEL returns:
 Original cell was already a primitive cell.
 

 Routine SETGRP: Setting up the symmetry group for a 
 simple orthorhombic supercell.


 Subroutine GETGRP returns: Found  4 space group operations
 (whereof  1 operations were pure point group operations)
 out of a pool of  8 trial point group operations.


The dynamic configuration has the point symmetry C_1 .
 The point group associated with its full space group is C_2v.


 Subroutine INISYM returns: Found  4 space group operations
 (whereof  1 operations are pure point group operations),
 and found     1 'primitive' translations

 
 
 KPOINTS: Automatic                               

Automatic generation of k-mesh.
Space group operators:
 irot       det(A)        alpha          n_x          n_y          n_z        tau_x        tau_y        tau_z
    1     1.000000     0.000000     1.000000     0.000000     0.000000     0.000000     0.000000     0.000000
    2    -1.000000   180.000000     0.000000     0.000000     1.000000    -0.500000    -0.500000    -0.000000
    3     1.000000   180.000000     1.000000     0.000000     0.000000    -0.500000     0.000000    -0.000000
    4    -1.000000   180.000000     0.000000     1.000000     0.000000     0.000000    -0.500000     0.000000
 
 Subroutine IBZKPT returns following result:
 ===========================================
 
 Found     64 irreducible k-points:
 
 Following reciprocal coordinates:
            Coordinates               Weight
  0.000000  0.000000  0.000000      1.000000
  0.066667  0.000000  0.000000      2.000000
  0.133333  0.000000  0.000000      2.000000
  0.200000  0.000000  0.000000      2.000000
  0.266667  0.000000  0.000000      2.000000
  0.333333  0.000000  0.000000      2.000000
  0.400000  0.000000  0.000000      2.000000
  0.466667  0.000000  0.000000      2.000000
  0.000000  0.066667  0.000000      2.000000
  0.066667  0.066667  0.000000      4.000000
  0.133333  0.066667  0.000000      4.000000
  0.200000  0.066667  0.000000      4.000000
  0.266667  0.066667  0.000000      4.000000
  0.333333  0.066667  0.000000      4.000000
  0.400000  0.066667  0.000000      4.000000
  0.466667  0.066667  0.000000      4.000000
  0.000000  0.133333  0.000000      2.000000
  0.066667  0.133333  0.000000      4.000000
  0.133333  0.133333  0.000000      4.000000
  0.200000  0.133333  0.000000      4.000000
  0.266667  0.133333  0.000000      4.000000
  0.333333  0.133333  0.000000      4.000000
  0.400000  0.133333  0.000000      4.000000
  0.466667  0.133333  0.000000      4.000000
  0.000000  0.200000  0.000000      2.000000
  0.066667  0.200000  0.000000      4.000000
  0.133333  0.200000  0.000000      4.000000
  0.200000  0.200000  0.000000      4.000000
  0.266667  0.200000  0.000000      4.000000
  0.333333  0.200000  0.000000      4.000000
  0.400000  0.200000  0.000000      4.000000
  0.466667  0.200000  0.000000      4.000000
  0.000000  0.266667  0.000000      2.000000
  0.066667  0.266667  0.000000      4.000000
  0.133333  0.266667  0.000000      4.000000
  0.200000  0.266667  0.000000      4.000000
  0.266667  0.266667  0.000000      4.000000
  0.333333  0.266667  0.000000      4.000000
  0.400000  0.266667  0.000000      4.000000
  0.466667  0.266667  0.000000      4.000000
  0.000000  0.333333  0.000000      2.000000
  0.066667  0.333333  0.000000      4.000000
  0.133333  0.333333  0.000000      4.000000
  0.200000  0.333333  0.000000      4.000000
  0.266667  0.333333  0.000000      4.000000
  0.333333  0.333333  0.000000      4.000000
  0.400000  0.333333  0.000000      4.000000
  0.466667  0.333333  0.000000      4.000000
  0.000000  0.400000  0.000000      2.000000
  0.066667  0.400000  0.000000      4.000000
  0.133333  0.400000  0.000000      4.000000
  0.200000  0.400000  0.000000      4.000000
  0.266667  0.400000  0.000000      4.000000
  0.333333  0.400000  0.000000      4.000000
  0.400000  0.400000  0.000000      4.000000
  0.466667  0.400000  0.000000      4.000000
  0.000000  0.466667  0.000000      2.000000
  0.066667  0.466667  0.000000      4.000000
  0.133333  0.466667  0.000000      4.000000
  0.200000  0.466667  0.000000      4.000000
  0.266667  0.466667  0.000000      4.000000
  0.333333  0.466667  0.000000      4.000000
  0.400000  0.466667  0.000000      4.000000
  0.466667  0.466667  0.000000      4.000000
 
 Following cartesian coordinates:
            Coordinates               Weight
  0.000000  0.000000  0.000000      1.000000
  0.015243  0.000000  0.000000      2.000000
  0.030486  0.000000  0.000000      2.000000
  0.045729  0.000000  0.000000      2.000000
  0.060972  0.000000  0.000000      2.000000
  0.076215  0.000000  0.000000      2.000000
  0.091458  0.000000  0.000000      2.000000
  0.106701  0.000000  0.000000      2.000000
  0.000000  0.015531  0.000000      2.000000
  0.015243  0.015531  0.000000      4.000000
  0.030486  0.015531  0.000000      4.000000
  0.045729  0.015531  0.000000      4.000000
  0.060972  0.015531  0.000000      4.000000
  0.076215  0.015531  0.000000      4.000000
  0.091458  0.015531  0.000000      4.000000
  0.106701  0.015531  0.000000      4.000000
  0.000000  0.031062  0.000000      2.000000
  0.015243  0.031062  0.000000      4.000000
  0.030486  0.031062  0.000000      4.000000
  0.045729  0.031062  0.000000      4.000000
  0.060972  0.031062  0.000000      4.000000
  0.076215  0.031062  0.000000      4.000000
  0.091458  0.031062  0.000000      4.000000
  0.106701  0.031062  0.000000      4.000000
  0.000000  0.046593  0.000000      2.000000
  0.015243  0.046593  0.000000      4.000000
  0.030486  0.046593  0.000000      4.000000
  0.045729  0.046593  0.000000      4.000000
  0.060972  0.046593  0.000000      4.000000
  0.076215  0.046593  0.000000      4.000000
  0.091458  0.046593  0.000000      4.000000
  0.106701  0.046593  0.000000      4.000000
  0.000000  0.062124  0.000000      2.000000
  0.015243  0.062124  0.000000      4.000000
  0.030486  0.062124  0.000000      4.000000
  0.045729  0.062124  0.000000      4.000000
  0.060972  0.062124  0.000000      4.000000
  0.076215  0.062124  0.000000      4.000000
  0.091458  0.062124  0.000000      4.000000
  0.106701  0.062124  0.000000      4.000000
  0.000000  0.077655  0.000000      2.000000
  0.015243  0.077655  0.000000      4.000000
  0.030486  0.077655  0.000000      4.000000
  0.045729  0.077655  0.000000      4.000000
  0.060972  0.077655  0.000000      4.000000
  0.076215  0.077655  0.000000      4.000000
  0.091458  0.077655  0.000000      4.000000
  0.106701  0.077655  0.000000      4.000000
  0.000000  0.093186  0.000000      2.000000
  0.015243  0.093186  0.000000      4.000000
  0.030486  0.093186  0.000000      4.000000
  0.045729  0.093186  0.000000      4.000000
  0.060972  0.093186  0.000000      4.000000
  0.076215  0.093186  0.000000      4.000000
  0.091458  0.093186  0.000000      4.000000
  0.106701  0.093186  0.000000      4.000000
  0.000000  0.108717  0.000000      2.000000
  0.015243  0.108717  0.000000      4.000000
  0.030486  0.108717  0.000000      4.000000
  0.045729  0.108717  0.000000      4.000000
  0.060972  0.108717  0.000000      4.000000
  0.076215  0.108717  0.000000      4.000000
  0.091458  0.108717  0.000000      4.000000
  0.106701  0.108717  0.000000      4.000000
 


--------------------------------------------------------------------------------------------------------




 Dimension of arrays:
   k-points           NKPTS =     64   k-points in BZ     NKDIM =     64   number of bands    NBANDS=     14
   number of dos      NEDOS =    301   number of ions     NIONS =      4
   non local maximal  LDIM  =      5   non local SUM 2l+1 LMDIM =     13
   total plane-waves  NPLWV = 207360
   max r-space proj   IRMAX =      1   max aug-charges    IRDMAX=  53353
   dimension x,y,z NGX =    36 NGY =   36 NGZ =  160
   dimension x,y,z NGXF=    72 NGYF=   72 NGZF=  320
   support grid    NGXF=    72 NGYF=   72 NGZF=  320
   ions per type =               2   2
   NGX,Y,Z   is equivalent  to a cutoff of  13.68, 13.94, 13.30 a.u.
   NGXF,Y,Z  is equivalent  to a cutoff of  27.37, 27.89, 26.60 a.u.

 SYSTEM =  SnSe                                    
 POSCAR =   SnSe-Monolayer                         

 Startparameter for this run:
   NWRITE =      2    write-flag & timer
   PREC   = accura    normal or accurate (medium, high low for compatibility)
   ISTART =      0    job   : 0-new  1-cont  2-samecut
   ICHARG =      2    charge: 1-file 2-atom 10-const
   ISPIN  =      1    spin polarized calculation?
   LNONCOLLINEAR =      F non collinear calculations
   LSORBIT =      F    spin-orbit coupling
   INIWAV =      1    electr: 0-lowe 1-rand  2-diag
   LASPH  =      F    aspherical Exc in radial PAW
   METAGGA=      F    non-selfconsistent MetaGGA calc.

 Electronic Relaxation 1
   ENCUT  =  600.0 eV  44.10 Ry    6.64 a.u.   8.74  8.57 39.94*2*pi/ulx,y,z
   ENINI  =  600.0     initial cutoff
   ENAUG  =  446.8 eV  augmentation charge cutoff
   NELM   =     60;   NELMIN=  2; NELMDL= -5     # of ELM steps 
   EDIFF  = 0.1E-05   stopping-criterion for ELM
   LREAL  =      F    real-space projection
   NLSPLINE    = F    spline interpolate recip. space projectors
   LCOMPAT=      F    compatible to vasp.4.4
   GGA_COMPAT  = T    GGA compatible to vasp.4.4-vasp.4.6
   LMAXPAW     = -100 max onsite density
   LMAXMIX     =    2 max onsite mixed and CHGCAR
   VOSKOWN=      0    Vosko Wilk Nusair interpolation
   ROPT   =    0.00000   0.00000
 Ionic relaxation
   EDIFFG = -.1E-02   stopping-criterion for IOM
   NSW    =    100    number of steps for IOM
   NBLOCK =      1;   KBLOCK =    100    inner block; outer block 
   IBRION =      2    ionic relax: 0-MD 1-quasi-New 2-CG
   NFREE  =      1    steps in history (QN), initial steepest desc. (CG)
   ISIF   =      2    stress and relaxation
   IWAVPR =     11    prediction:  0-non 1-charg 2-wave 3-comb
   ISYM   =      2    0-nonsym 1-usesym 2-fastsym
   LCORR  =      T    Harris-Foulkes like correction to forces

   POTIM  = 0.5000    time-step for ionic-motion
   TEIN   =    0.0    initial temperature
   TEBEG  =    0.0;   TEEND  =   0.0 temperature during run
   SMASS  =  -3.00    Nose mass-parameter (am)
   estimated Nose-frequenzy (Omega)   =  0.10E-29 period in steps =****** mass=  -0.437E-27a.u.
   SCALEE = 1.0000    scale energy and forces
   NPACO  =    256;   APACO  = 16.0  distance and # of slots for P.C.
   PSTRESS=    0.0 pullay stress

  Mass of Ions in am
   POMASS = 118.71 78.96
  Ionic Valenz
   ZVAL   =   4.00  6.00
  Atomic Wigner-Seitz radii
   RWIGS  =  -1.00 -1.00
  virtual crystal weights 
   VCA    =   1.00  1.00
   NELECT =      20.0000    total number of electrons
   NUPDOWN=      -1.0000    fix difference up-down

 DOS related values:
   EMIN   =  10.00;   EMAX   =-10.00  energy-range for DOS
   EFERMI =   0.00
   ISMEAR =     0;   SIGMA  =   0.10  broadening in eV -4-tet -1-fermi 0-gaus

 Electronic relaxation 2 (details)
   IALGO  =     38    algorithm
   LDIAG  =      T    sub-space diagonalisation (order eigenvalues)
   LSUBROT=      F    optimize rotation matrix (better conditioning)
   TURBO    =      0    0=normal 1=particle mesh
   IRESTART =      0    0=no restart 2=restart with 2 vectors
   NREBOOT  =      0    no. of reboots
   NMIN     =      0    reboot dimension
   EREF     =   0.00    reference energy to select bands
   IMIX   =      4    mixing-type and parameters
     AMIX     =   0.40;   BMIX     =  1.00
     AMIX_MAG =   1.60;   BMIX_MAG =  1.00
     AMIN     =   0.10
     WC   =   100.;   INIMIX=   1;  MIXPRE=   1;  MAXMIX= -45

 Intra band minimization:
   WEIMIN = 0.0010     energy-eigenvalue tresh-hold
   EBREAK =  0.18E-07  absolut break condition
   DEPER  =   0.30     relativ break condition  

   TIME   =   0.40     timestep for ELM

  volume/ion in A,a.u.               =      93.87       633.45
  Fermi-wavevector in a.u.,A,eV,Ry     =   0.615970  1.164014  5.162305  0.379419
  Thomas-Fermi vector in A             =   1.673530
 
 Write flags
   LWAVE        =      T    write WAVECAR
   LDOWNSAMPLE  =      F    k-point downsampling of WAVECAR
   LCHARG       =      T    write CHGCAR
   LVTOT        =      F    write LOCPOT, total local potential
   LVHAR        =      F    write LOCPOT, Hartree potential only
   LELF         =      F    write electronic localiz. function (ELF)
   LORBIT       =      0    0 simple, 1 ext, 2 COOP (PROOUT), +10 PAW based schemes


 Dipole corrections
   LMONO  =      F    monopole corrections only (constant potential shift)
   LDIPOL =      F    correct potential (dipole corrections)
   IDIPOL =      0    1-x, 2-y, 3-z, 4-all directions 
   EPSILON=  1.0000000 bulk dielectric constant

 Exchange correlation treatment:
   GGA     =    PE    GGA type
   LEXCH   =     8    internal setting for exchange type
   VOSKOWN=      0    Vosko Wilk Nusair interpolation
   LHFCALC =     F    Hartree Fock is set to
   LHFONE  =     F    Hartree Fock one center treatment
   AEXX    =    0.0000 exact exchange contribution

 Linear response parameters
   LEPSILON=     F    determine dielectric tensor
   LRPA    =     F    only Hartree local field effects (RPA)
   LNABLA  =     F    use nabla operator in PAW spheres
   LVEL    =     F    velocity operator in full k-point grid
   LINTERFAST=   F  fast interpolation
   KINTER  =     0    interpolate to denser k-point grid
   CSHIFT  =0.1000    complex shift for real part using Kramers Kronig
   OMEGAMAX=  -1.0    maximum frequency
   DEG_THRESHOLD= 0.2000000E-02 threshold for treating states as degnerate
   RTIME   =   -0.100 relaxation time in fs
  (WPLASMAI=    0.000 imaginary part of plasma frequency in eV, 0.658/RTIME)
   DFIELD  = 0.0000000 0.0000000 0.0000000 field for delta impulse in time
 
 Orbital magnetization related:
   ORBITALMAG=     F  switch on orbital magnetization
   LCHIMAG   =     F  perturbation theory with respect to B field
   DQ        =  0.001000  dq finite difference perturbation B field
   LLRAUG    =     F  two centre corrections for induced B field



--------------------------------------------------------------------------------------------------------


 conjugate gradient relaxation of ions
 charge density and potential will be updated during run
 non-spin polarized calculation
 Variant of blocked Davidson
 Davidson routine will perform the subspace rotation
 perform sub-space diagonalisation
    after iterative eigenvector-optimisation
 modified Broyden-mixing scheme, WC =      100.0
 initial mixing is a Kerker type mixing with AMIX =  0.4000 and BMIX =      1.0000
 Hartree-type preconditioning will be used
 using additional bands            4
 reciprocal scheme for non local part
 use partial core corrections
 calculate Harris-corrections to forces 
   (improved forces if not selfconsistent)
 use gradient corrections 
 use of overlap-Matrix (Vanderbilt PP)
 Gauss-broadening in eV      SIGMA  =   0.10


--------------------------------------------------------------------------------------------------------


  energy-cutoff  :      600.00
  volume of cell :      375.47
      direct lattice vectors                 reciprocal lattice vectors
     4.373592051  0.000000000  0.000000000     0.228645010  0.000000000  0.000000000
     0.000000000  4.292477857  0.000000000     0.000000000  0.232965675  0.000000000
     0.000000000  0.000000000 20.000000000     0.000000000  0.000000000  0.050000000

  length of vectors
     4.373592051  4.292477857 20.000000000     0.228645010  0.232965675  0.050000000


 
 k-points in units of 2pi/SCALE and weight: Automatic                               
   0.00000000  0.00000000  0.00000000       0.004
   0.01524300  0.00000000  0.00000000       0.009
   0.03048600  0.00000000  0.00000000       0.009
   0.04572900  0.00000000  0.00000000       0.009
   0.06097200  0.00000000  0.00000000       0.009
   0.07621500  0.00000000  0.00000000       0.009
   0.09145800  0.00000000  0.00000000       0.009
   0.10670100  0.00000000  0.00000000       0.009
   0.00000000  0.01553104  0.00000000       0.009
   0.01524300  0.01553104  0.00000000       0.018
   0.03048600  0.01553104  0.00000000       0.018
   0.04572900  0.01553104  0.00000000       0.018
   0.06097200  0.01553104  0.00000000       0.018
   0.07621500  0.01553104  0.00000000       0.018
   0.09145800  0.01553104  0.00000000       0.018
   0.10670100  0.01553104  0.00000000       0.018
   0.00000000  0.03106209  0.00000000       0.009
   0.01524300  0.03106209  0.00000000       0.018
   0.03048600  0.03106209  0.00000000       0.018
   0.04572900  0.03106209  0.00000000       0.018
   0.06097200  0.03106209  0.00000000       0.018
   0.07621500  0.03106209  0.00000000       0.018
   0.09145800  0.03106209  0.00000000       0.018
   0.10670100  0.03106209  0.00000000       0.018
   0.00000000  0.04659313  0.00000000       0.009
   0.01524300  0.04659313  0.00000000       0.018
   0.03048600  0.04659313  0.00000000       0.018
   0.04572900  0.04659313  0.00000000       0.018
   0.06097200  0.04659313  0.00000000       0.018
   0.07621500  0.04659313  0.00000000       0.018
   0.09145800  0.04659313  0.00000000       0.018
   0.10670100  0.04659313  0.00000000       0.018
   0.00000000  0.06212418  0.00000000       0.009
   0.01524300  0.06212418  0.00000000       0.018
   0.03048600  0.06212418  0.00000000       0.018
   0.04572900  0.06212418  0.00000000       0.018
   0.06097200  0.06212418  0.00000000       0.018
   0.07621500  0.06212418  0.00000000       0.018
   0.09145800  0.06212418  0.00000000       0.018
   0.10670100  0.06212418  0.00000000       0.018
   0.00000000  0.07765522  0.00000000       0.009
   0.01524300  0.07765522  0.00000000       0.018
   0.03048600  0.07765522  0.00000000       0.018
   0.04572900  0.07765522  0.00000000       0.018
   0.06097200  0.07765522  0.00000000       0.018
   0.07621500  0.07765522  0.00000000       0.018
   0.09145800  0.07765522  0.00000000       0.018
   0.10670100  0.07765522  0.00000000       0.018
   0.00000000  0.09318627  0.00000000       0.009
   0.01524300  0.09318627  0.00000000       0.018
   0.03048600  0.09318627  0.00000000       0.018
   0.04572900  0.09318627  0.00000000       0.018
   0.06097200  0.09318627  0.00000000       0.018
   0.07621500  0.09318627  0.00000000       0.018
   0.09145800  0.09318627  0.00000000       0.018
   0.10670100  0.09318627  0.00000000       0.018
   0.00000000  0.10871731  0.00000000       0.009
   0.01524300  0.10871731  0.00000000       0.018
   0.03048600  0.10871731  0.00000000       0.018
   0.04572900  0.10871731  0.00000000       0.018
   0.06097200  0.10871731  0.00000000       0.018
   0.07621500  0.10871731  0.00000000       0.018
   0.09145800  0.10871731  0.00000000       0.018
   0.10670100  0.10871731  0.00000000       0.018
 
 k-points in reciprocal lattice and weights: Automatic                               
   0.00000000  0.00000000  0.00000000       0.004
   0.06666667  0.00000000  0.00000000       0.009
   0.13333333  0.00000000  0.00000000       0.009
   0.20000000  0.00000000  0.00000000       0.009
   0.26666667  0.00000000  0.00000000       0.009
   0.33333333  0.00000000  0.00000000       0.009
   0.40000000  0.00000000  0.00000000       0.009
   0.46666667  0.00000000  0.00000000       0.009
   0.00000000  0.06666667  0.00000000       0.009
   0.06666667  0.06666667  0.00000000       0.018
   0.13333333  0.06666667  0.00000000       0.018
   0.20000000  0.06666667  0.00000000       0.018
   0.26666667  0.06666667  0.00000000       0.018
   0.33333333  0.06666667  0.00000000       0.018
   0.40000000  0.06666667  0.00000000       0.018
   0.46666667  0.06666667  0.00000000       0.018
   0.00000000  0.13333333  0.00000000       0.009
   0.06666667  0.13333333  0.00000000       0.018
   0.13333333  0.13333333  0.00000000       0.018
   0.20000000  0.13333333  0.00000000       0.018
   0.26666667  0.13333333  0.00000000       0.018
   0.33333333  0.13333333  0.00000000       0.018
   0.40000000  0.13333333  0.00000000       0.018
   0.46666667  0.13333333  0.00000000       0.018
   0.00000000  0.20000000  0.00000000       0.009
   0.06666667  0.20000000  0.00000000       0.018
   0.13333333  0.20000000  0.00000000       0.018
   0.20000000  0.20000000  0.00000000       0.018
   0.26666667  0.20000000  0.00000000       0.018
   0.33333333  0.20000000  0.00000000       0.018
   0.40000000  0.20000000  0.00000000       0.018
   0.46666667  0.20000000  0.00000000       0.018
   0.00000000  0.26666667  0.00000000       0.009
   0.06666667  0.26666667  0.00000000       0.018
   0.13333333  0.26666667  0.00000000       0.018
   0.20000000  0.26666667  0.00000000       0.018
   0.26666667  0.26666667  0.00000000       0.018
   0.33333333  0.26666667  0.00000000       0.018
   0.40000000  0.26666667  0.00000000       0.018
   0.46666667  0.26666667  0.00000000       0.018
   0.00000000  0.33333333  0.00000000       0.009
   0.06666667  0.33333333  0.00000000       0.018
   0.13333333  0.33333333  0.00000000       0.018
   0.20000000  0.33333333  0.00000000       0.018
   0.26666667  0.33333333  0.00000000       0.018
   0.33333333  0.33333333  0.00000000       0.018
   0.40000000  0.33333333  0.00000000       0.018
   0.46666667  0.33333333  0.00000000       0.018
   0.00000000  0.40000000  0.00000000       0.009
   0.06666667  0.40000000  0.00000000       0.018
   0.13333333  0.40000000  0.00000000       0.018
   0.20000000  0.40000000  0.00000000       0.018
   0.26666667  0.40000000  0.00000000       0.018
   0.33333333  0.40000000  0.00000000       0.018
   0.40000000  0.40000000  0.00000000       0.018
   0.46666667  0.40000000  0.00000000       0.018
   0.00000000  0.46666667  0.00000000       0.009
   0.06666667  0.46666667  0.00000000       0.018
   0.13333333  0.46666667  0.00000000       0.018
   0.20000000  0.46666667  0.00000000       0.018
   0.26666667  0.46666667  0.00000000       0.018
   0.33333333  0.46666667  0.00000000       0.018
   0.40000000  0.46666667  0.00000000       0.018
   0.46666667  0.46666667  0.00000000       0.018
 
 position of ions in fractional coordinates (direct lattice) 
   0.58124336  0.75000000  0.56874314
   0.08124336  0.25000000  0.43125686
   0.03286064  0.25000000  0.56707387
   0.53286061  0.75000000  0.43292613
 
 position of ions in cartesian coordinates  (Angst):
   2.54212133  3.21935839 11.37486283
   0.35532531  1.07311946  8.62513717
   0.14371905  1.07311946 11.34147733
   2.33051495  3.21935839  8.65852267
 


--------------------------------------------------------------------------------------------------------


 k-point  1 :   0.0000 0.0000 0.0000  plane waves:   12627
 k-point  2 :   0.0667 0.0000 0.0000  plane waves:   12579
 k-point  3 :   0.1333 0.0000 0.0000  plane waves:   12553
 k-point  4 :   0.2000 0.0000 0.0000  plane waves:   12523
 k-point  5 :   0.2667 0.0000 0.0000  plane waves:   12508
 k-point  6 :   0.3333 0.0000 0.0000  plane waves:   12550
 k-point  7 :   0.4000 0.0000 0.0000  plane waves:   12574
 k-point  8 :   0.4667 0.0000 0.0000  plane waves:   12560
 k-point  9 :   0.0000 0.0667 0.0000  plane waves:   12565
 k-point 10 :   0.0667 0.0667 0.0000  plane waves:   12552
 k-point 11 :   0.1333 0.0667 0.0000  plane waves:   12536
 k-point 12 :   0.2000 0.0667 0.0000  plane waves:   12542
 k-point 13 :   0.2667 0.0667 0.0000  plane waves:   12527
 k-point 14 :   0.3333 0.0667 0.0000  plane waves:   12538
 k-point 15 :   0.4000 0.0667 0.0000  plane waves:   12572
 k-point 16 :   0.4667 0.0667 0.0000  plane waves:   12562
 k-point 17 :   0.0000 0.1333 0.0000  plane waves:   12549
 k-point 18 :   0.0667 0.1333 0.0000  plane waves:   12552
 k-point 19 :   0.1333 0.1333 0.0000  plane waves:   12526
 k-point 20 :   0.2000 0.1333 0.0000  plane waves:   12518
 k-point 21 :   0.2667 0.1333 0.0000  plane waves:   12525
 k-point 22 :   0.3333 0.1333 0.0000  plane waves:   12554
 k-point 23 :   0.4000 0.1333 0.0000  plane waves:   12545
 k-point 24 :   0.4667 0.1333 0.0000  plane waves:   12546
 k-point 25 :   0.0000 0.2000 0.0000  plane waves:   12557
 k-point 26 :   0.0667 0.2000 0.0000  plane waves:   12539
 k-point 27 :   0.1333 0.2000 0.0000  plane waves:   12546
 k-point 28 :   0.2000 0.2000 0.0000  plane waves:   12541
 k-point 29 :   0.2667 0.2000 0.0000  plane waves:   12524
 k-point 30 :   0.3333 0.2000 0.0000  plane waves:   12529
 k-point 31 :   0.4000 0.2000 0.0000  plane waves:   12530
 k-point 32 :   0.4667 0.2000 0.0000  plane waves:   12552
 k-point 33 :   0.0000 0.2667 0.0000  plane waves:   12541
 k-point 34 :   0.0667 0.2667 0.0000  plane waves:   12524
 k-point 35 :   0.1333 0.2667 0.0000  plane waves:   12536
 k-point 36 :   0.2000 0.2667 0.0000  plane waves:   12535
 k-point 37 :   0.2667 0.2667 0.0000  plane waves:   12530
 k-point 38 :   0.3333 0.2667 0.0000  plane waves:   12525
 k-point 39 :   0.4000 0.2667 0.0000  plane waves:   12525
 k-point 40 :   0.4667 0.2667 0.0000  plane waves:   12539
 k-point 41 :   0.0000 0.3333 0.0000  plane waves:   12511
 k-point 42 :   0.0667 0.3333 0.0000  plane waves:   12515
 k-point 43 :   0.1333 0.3333 0.0000  plane waves:   12528
 k-point 44 :   0.2000 0.3333 0.0000  plane waves:   12533
 k-point 45 :   0.2667 0.3333 0.0000  plane waves:   12513
 k-point 46 :   0.3333 0.3333 0.0000  plane waves:   12513
 k-point 47 :   0.4000 0.3333 0.0000  plane waves:   12522
 k-point 48 :   0.4667 0.3333 0.0000  plane waves:   12526
 k-point 49 :   0.0000 0.4000 0.0000  plane waves:   12481
 k-point 50 :   0.0667 0.4000 0.0000  plane waves:   12513
 k-point 51 :   0.1333 0.4000 0.0000  plane waves:   12528
 k-point 52 :   0.2000 0.4000 0.0000  plane waves:   12519
 k-point 53 :   0.2667 0.4000 0.0000  plane waves:   12523
 k-point 54 :   0.3333 0.4000 0.0000  plane waves:   12510
 k-point 55 :   0.4000 0.4000 0.0000  plane waves:   12512
 k-point 56 :   0.4667 0.4000 0.0000  plane waves:   12525
 k-point 57 :   0.0000 0.4667 0.0000  plane waves:   12498
 k-point 58 :   0.0667 0.4667 0.0000  plane waves:   12516
 k-point 59 :   0.1333 0.4667 0.0000  plane waves:   12512
 k-point 60 :   0.2000 0.4667 0.0000  plane waves:   12514
 k-point 61 :   0.2667 0.4667 0.0000  plane waves:   12493
 k-point 62 :   0.3333 0.4667 0.0000  plane waves:   12502
 k-point 63 :   0.4000 0.4667 0.0000  plane waves:   12493
 k-point 64 :   0.4667 0.4667 0.0000  plane waves:   12512

 maximum and minimum number of plane-waves per node :       547      505

 maximum number of plane-waves:     12627
 maximum index in each direction: 
   IXMAX=    8   IYMAX=    8   IZMAX=   39
   IXMIN=   -9   IYMIN=   -9   IZMIN=  -39


 parallel 3D FFT for wavefunctions:
    minimum data exchange during FFTs selected (reduces bandwidth)
 parallel 3D FFT for charge:
    minimum data exchange during FFTs selected (reduces bandwidth)


 total amount of memory used by VASP MPI-rank0    51686. kBytes
=======================================================================

   base      :      30000. kBytes
   nonl-proj :       6982. kBytes
   fftplans  :       2678. kBytes
   grid      :       4349. kBytes
   one-center:          8. kBytes
   wavefun   :       7669. kBytes
 
     INWAV:  cpu time    0.0001: real time    0.0002
 Broyden mixing: mesh for mixing (old mesh)
   NGX = 17   NGY = 17   NGZ = 79
  (NGX  = 72   NGY  = 72   NGZ  =320)
  gives a total of  22831 points

 initial charge density was supplied:
 charge density of overlapping atoms calculated
 number of electron      20.0000000 magnetization 
 keeping initial charge density in first step


--------------------------------------------------------------------------------------------------------


 Maximum index for augmentation-charges         2234 (set IRDMAX)


--------------------------------------------------------------------------------------------------------


 First call to EWALD:  gamma=   0.246
 Maximum number of real-space cells 4x 4x 1
 Maximum number of reciprocal cells 2x 2x 7

    FEWALD:  cpu time    0.0014: real time    0.0022


--------------------------------------- Iteration      1(   1)  ---------------------------------------


    POTLOK:  cpu time    0.0486: real time    0.4110
    SETDIJ:  cpu time    0.0043: real time    0.0058
     EDDAV:  cpu time    1.5291: real time    1.5374
       DOS:  cpu time    0.0028: real time    0.0028
    --------------------------------------------
      LOOP:  cpu time    1.5848: real time    1.9571

 eigenvalue-minimisations  :  1792
 total energy-change (2. order) : 0.1442337E+03  (-0.6300729E+03)
 number of electron      20.0000000 magnetization 
 augmentation part       20.0000000 magnetization 

 Free energy of the ion-electron system (eV)
  ---------------------------------------------------
  alpha Z        PSCENC =         9.52326407
  Ewald energy   TEWEN  =      1155.93795487
  -Hartree energ DENC   =     -1757.87090420
  -exchange      EXHF   =         0.00000000
  -V(xc)+E(xc)   XCENC  =      -238.57386031
  PAW double counting   =       799.43158084     -524.17639913
  entropy T*S    EENTRO =        -0.01088326
  eigenvalues    EBANDS =        -2.45492365
  atomic energy  EATOM  =       702.42789710
  Solvation  Ediel_sol  =         0.00000000
  ---------------------------------------------------
  free energy    TOTEN  =       144.23372633 eV

  energy without entropy =      144.24460960  energy(sigma->0) =      144.23916797


--------------------------------------------------------------------------------------------------------




--------------------------------------- Iteration      1(   2)  ---------------------------------------


     EDDAV:  cpu time    2.0560: real time    2.0609
       DOS:  cpu time    0.0030: real time    0.0030
    --------------------------------------------
      LOOP:  cpu time    2.0590: real time    2.0639

 eigenvalue-minimisations  :  2928
 total energy-change (2. order) :-0.1392175E+03  (-0.1345661E+03)
 number of electron      20.0000000 magnetization 
 augmentation part       20.0000000 magnetization 

 Free energy of the ion-electron system (eV)
  ---------------------------------------------------
  alpha Z        PSCENC =         9.52326407
  Ewald energy   TEWEN  =      1155.93795487
  -Hartree energ DENC   =     -1757.87090420
  -exchange      EXHF   =         0.00000000
  -V(xc)+E(xc)   XCENC  =      -238.57386031
  PAW double counting   =       799.43158084     -524.17639913
  entropy T*S    EENTRO =        -0.00309090
  eigenvalues    EBANDS =      -141.68026109
  atomic energy  EATOM  =       702.42789710
  Solvation  Ediel_sol  =         0.00000000
  ---------------------------------------------------
  free energy    TOTEN  =         5.01618125 eV

  energy without entropy =        5.01927215  energy(sigma->0) =        5.01772670


--------------------------------------------------------------------------------------------------------




--------------------------------------- Iteration      1(   3)  ---------------------------------------


     EDDAV:  cpu time    1.6727: real time    1.6766
       DOS:  cpu time    0.0019: real time    0.0020
    --------------------------------------------
      LOOP:  cpu time    1.6746: real time    1.6786

 eigenvalue-minimisations  :  2314
 total energy-change (2. order) :-0.2099159E+02  (-0.2075258E+02)
 number of electron      20.0000000 magnetization 
 augmentation part       20.0000000 magnetization 

 Free energy of the ion-electron system (eV)
  ---------------------------------------------------
  alpha Z        PSCENC =         9.52326407
  Ewald energy   TEWEN  =      1155.93795487
  -Hartree energ DENC   =     -1757.87090420
  -exchange      EXHF   =         0.00000000
  -V(xc)+E(xc)   XCENC  =      -238.57386031
  PAW double counting   =       799.43158084     -524.17639913
  entropy T*S    EENTRO =        -0.00000000
  eigenvalues    EBANDS =      -162.67494284
  atomic energy  EATOM  =       702.42789710
  Solvation  Ediel_sol  =         0.00000000
  ---------------------------------------------------
  free energy    TOTEN  =       -15.97540960 eV

  energy without entropy =      -15.97540960  energy(sigma->0) =      -15.97540960


--------------------------------------------------------------------------------------------------------




--------------------------------------- Iteration      1(   4)  ---------------------------------------


     EDDAV:  cpu time    1.8120: real time    1.8163
       DOS:  cpu time    0.0019: real time    0.0019
    --------------------------------------------
      LOOP:  cpu time    1.8139: real time    1.8182

 eigenvalue-minimisations  :  2574
 total energy-change (2. order) :-0.8006147E+00  (-0.7985859E+00)
 number of electron      20.0000000 magnetization 
 augmentation part       20.0000000 magnetization 

 Free energy of the ion-electron system (eV)
  ---------------------------------------------------
  alpha Z        PSCENC =         9.52326407
  Ewald energy   TEWEN  =      1155.93795487
  -Hartree energ DENC   =     -1757.87090420
  -exchange      EXHF   =         0.00000000
  -V(xc)+E(xc)   XCENC  =      -238.57386031
  PAW double counting   =       799.43158084     -524.17639913
  entropy T*S    EENTRO =        -0.00000000
  eigenvalues    EBANDS =      -163.47555753
  atomic energy  EATOM  =       702.42789710
  Solvation  Ediel_sol  =         0.00000000
  ---------------------------------------------------
  free energy    TOTEN  =       -16.77602428 eV

  energy without entropy =      -16.77602428  energy(sigma->0) =      -16.77602428


--------------------------------------------------------------------------------------------------------




--------------------------------------- Iteration      1(   5)  ---------------------------------------


     EDDAV:  cpu time    1.7368: real time    1.7408
       DOS:  cpu time    0.0020: real time    0.0020
    CHARGE:  cpu time    0.1419: real time    0.1424
    MIXING:  cpu time    0.0017: real time    0.0018
    --------------------------------------------
      LOOP:  cpu time    1.8825: real time    1.8870

 eigenvalue-minimisations  :  2344
 total energy-change (2. order) :-0.1846432E-01  (-0.1845236E-01)
 number of electron      20.0000000 magnetization 
 augmentation part       -4.5234650 magnetization 

 Broyden mixing:
  rms(total) = 0.45234E+00    rms(broyden)= 0.45234E+00
  rms(prec ) = 0.49265E+00
  weight for this iteration     100.00

 Free energy of the ion-electron system (eV)
  ---------------------------------------------------
  alpha Z        PSCENC =         9.52326407
  Ewald energy   TEWEN  =      1155.93795487
  -Hartree energ DENC   =     -1757.87090420
  -exchange      EXHF   =         0.00000000
  -V(xc)+E(xc)   XCENC  =      -238.57386031
  PAW double counting   =       799.43158084     -524.17639913
  entropy T*S    EENTRO =        -0.00000000
  eigenvalues    EBANDS =      -163.49402185
  atomic energy  EATOM  =       702.42789710
  Solvation  Ediel_sol  =         0.00000000
  ---------------------------------------------------
  free energy    TOTEN  =       -16.79448861 eV

  energy without entropy =      -16.79448861  energy(sigma->0) =      -16.79448861


--------------------------------------------------------------------------------------------------------




--------------------------------------- Iteration      1(   6)  ---------------------------------------


    POTLOK:  cpu time    0.0410: real time    0.0411
    SETDIJ:  cpu time    0.0034: real time    0.0040
     EDDAV:  cpu time    1.6243: real time    1.6285
       DOS:  cpu time    0.0020: real time    0.0021
    CHARGE:  cpu time    0.1365: real time    0.1368
    MIXING:  cpu time    0.0012: real time    0.0013
    --------------------------------------------
      LOOP:  cpu time    1.8086: real time    1.8138

 eigenvalue-minimisations  :  2240
 total energy-change (2. order) : 0.4885067E+00  (-0.1233310E+00)
 number of electron      20.0000000 magnetization 
 augmentation part       -4.4909747 magnetization 

 Broyden mixing:
  rms(total) = 0.27763E+00    rms(broyden)= 0.27763E+00
  rms(prec ) = 0.28679E+00
  weight for this iteration     100.00

 eigenvalues of (default mixing * dielectric matrix)
  average eigenvalue GAMMA=   1.8096
  1.8096

 Free energy of the ion-electron system (eV)
  ---------------------------------------------------
  alpha Z        PSCENC =         9.52326407
  Ewald energy   TEWEN  =      1155.93795487
  -Hartree energ DENC   =     -1765.74538430
  -exchange      EXHF   =         0.00000000
  -V(xc)+E(xc)   XCENC  =      -238.09140390
  PAW double counting   =       924.74676412     -649.67452094
  entropy T*S    EENTRO =        -0.00000000
  eigenvalues    EBANDS =      -155.43055290
  atomic energy  EATOM  =       702.42789710
  Solvation  Ediel_sol  =         0.00000000
  ---------------------------------------------------
  free energy    TOTEN  =       -16.30598187 eV

  energy without entropy =      -16.30598187  energy(sigma->0) =      -16.30598187


--------------------------------------------------------------------------------------------------------




--------------------------------------- Iteration      1(   7)  ---------------------------------------


    POTLOK:  cpu time    0.0407: real time    0.0408
    SETDIJ:  cpu time    0.0034: real time    0.0034
     EDDAV:  cpu time    1.7067: real time    1.7109
       DOS:  cpu time    0.0020: real time    0.0020
    CHARGE:  cpu time    0.1366: real time    0.1369
    MIXING:  cpu time    0.0012: real time    0.0013
    --------------------------------------------
      LOOP:  cpu time    1.8906: real time    1.8953

 eigenvalue-minimisations  :  2368
 total energy-change (2. order) : 0.2788296E-01  (-0.3154230E-01)
 number of electron      20.0000000 magnetization 
 augmentation part       -4.4825728 magnetization 

 Broyden mixing:
  rms(total) = 0.10438E+00    rms(broyden)= 0.10438E+00
  rms(prec ) = 0.10982E+00
  weight for this iteration     100.00

 eigenvalues of (default mixing * dielectric matrix)
  average eigenvalue GAMMA=   1.7317
  1.3743  2.0891

 Free energy of the ion-electron system (eV)
  ---------------------------------------------------
  alpha Z        PSCENC =         9.52326407
  Ewald energy   TEWEN  =      1155.93795487
  -Hartree energ DENC   =     -1770.81729222
  -exchange      EXHF   =         0.00000000
  -V(xc)+E(xc)   XCENC  =      -237.76479359
  PAW double counting   =      1067.17445842     -792.24279792
  entropy T*S    EENTRO =        -0.00000000
  eigenvalues    EBANDS =      -150.51678965
  atomic energy  EATOM  =       702.42789710
  Solvation  Ediel_sol  =         0.00000000
  ---------------------------------------------------
  free energy    TOTEN  =       -16.27809891 eV

  energy without entropy =      -16.27809891  energy(sigma->0) =      -16.27809891


--------------------------------------------------------------------------------------------------------




--------------------------------------- Iteration      1(   8)  ---------------------------------------


    POTLOK:  cpu time    0.0408: real time    0.0409
    SETDIJ:  cpu time    0.0033: real time    0.0033
     EDDAV:  cpu time    1.7820: real time    1.7863
       DOS:  cpu time    0.0020: real time    0.0020
    CHARGE:  cpu time    0.1519: real time    0.1528
    MIXING:  cpu time    0.0014: real time    0.0014
    --------------------------------------------
      LOOP:  cpu time    1.9813: real time    1.9867

 eigenvalue-minimisations  :  2504
 total energy-change (2. order) : 0.9727417E-02  (-0.3891378E-02)
 number of electron      20.0000000 magnetization 
 augmentation part       -4.4867702 magnetization 

 Broyden mixing:
  rms(total) = 0.20492E-01    rms(broyden)= 0.20492E-01
  rms(prec ) = 0.27941E-01
  weight for this iteration     100.00

 eigenvalues of (default mixing * dielectric matrix)
  average eigenvalue GAMMA=   1.7092
  2.5321  1.2978  1.2978

 Free energy of the ion-electron system (eV)
  ---------------------------------------------------
  alpha Z        PSCENC =         9.52326407
  Ewald energy   TEWEN  =      1155.93795487
  -Hartree energ DENC   =     -1772.50658526
  -exchange      EXHF   =         0.00000000
  -V(xc)+E(xc)   XCENC  =      -237.68716154
  PAW double counting   =      1132.70505943     -857.81195665
  entropy T*S    EENTRO =        -0.00000000
  eigenvalues    EBANDS =      -148.85684352
  atomic energy  EATOM  =       702.42789710
  Solvation  Ediel_sol  =         0.00000000
  ---------------------------------------------------
  free energy    TOTEN  =       -16.26837150 eV

  energy without entropy =      -16.26837150  energy(sigma->0) =      -16.26837150


--------------------------------------------------------------------------------------------------------




--------------------------------------- Iteration      1(   9)  ---------------------------------------


    POTLOK:  cpu time    0.0414: real time    0.0415
    SETDIJ:  cpu time    0.0034: real time    0.0040
     EDDAV:  cpu time    1.7501: real time    1.7545
       DOS:  cpu time    0.0020: real time    0.0020
    CHARGE:  cpu time    0.1456: real time    0.1459
    MIXING:  cpu time    0.0013: real time    0.0013
    --------------------------------------------
      LOOP:  cpu time    1.9439: real time    1.9491

 eigenvalue-minimisations  :  2452
 total energy-change (2. order) : 0.3767968E-02  (-0.6731716E-03)
 number of electron      20.0000000 magnetization 
 augmentation part       -4.4848309 magnetization 

 Broyden mixing:
  rms(total) = 0.10124E-01    rms(broyden)= 0.10124E-01
  rms(prec ) = 0.15690E-01
  weight for this iteration     100.00

 eigenvalues of (default mixing * dielectric matrix)
  average eigenvalue GAMMA=   1.7049
  2.2183  2.2183  1.1915  1.1915

 Free energy of the ion-electron system (eV)
  ---------------------------------------------------
  alpha Z        PSCENC =         9.52326407
  Ewald energy   TEWEN  =      1155.93795487
  -Hartree energ DENC   =     -1774.49980312
  -exchange      EXHF   =         0.00000000
  -V(xc)+E(xc)   XCENC  =      -237.61334480
  PAW double counting   =      1151.05932990     -876.17844868
  entropy T*S    EENTRO =        -0.00000000
  eigenvalues    EBANDS =      -146.92145287
  atomic energy  EATOM  =       702.42789710
  Solvation  Ediel_sol  =         0.00000000
  ---------------------------------------------------
  free energy    TOTEN  =       -16.26460353 eV

  energy without entropy =      -16.26460353  energy(sigma->0) =      -16.26460353


--------------------------------------------------------------------------------------------------------




--------------------------------------- Iteration      1(  10)  ---------------------------------------


    POTLOK:  cpu time    0.0414: real time    0.0415
    SETDIJ:  cpu time    0.0033: real time    0.0033
     EDDAV:  cpu time    1.7965: real time    1.8009
       DOS:  cpu time    0.0021: real time    0.0021
    CHARGE:  cpu time    0.1385: real time    0.1388
    MIXING:  cpu time    0.0014: real time    0.0014
    --------------------------------------------
      LOOP:  cpu time    1.9832: real time    1.9881

 eigenvalue-minimisations  :  2440
 total energy-change (2. order) : 0.1270640E-02  (-0.1206773E-03)
 number of electron      20.0000000 magnetization 
 augmentation part       -4.4835813 magnetization 

 Broyden mixing:
  rms(total) = 0.52133E-02    rms(broyden)= 0.52133E-02
  rms(prec ) = 0.94553E-02
  weight for this iteration     100.00

 eigenvalues of (default mixing * dielectric matrix)
  average eigenvalue GAMMA=   1.8687
  3.3579  2.5971  1.2401  1.2401  0.9082

 Free energy of the ion-electron system (eV)
  ---------------------------------------------------
  alpha Z        PSCENC =         9.52326407
  Ewald energy   TEWEN  =      1155.93795487
  -Hartree energ DENC   =     -1775.76696124
  -exchange      EXHF   =         0.00000000
  -V(xc)+E(xc)   XCENC  =      -237.60249446
  PAW double counting   =      1140.40221512     -865.51102633
  entropy T*S    EENTRO =        -0.00000000
  eigenvalues    EBANDS =      -145.67418203
  atomic energy  EATOM  =       702.42789710
  Solvation  Ediel_sol  =         0.00000000
  ---------------------------------------------------
  free energy    TOTEN  =       -16.26333289 eV

  energy without entropy =      -16.26333289  energy(sigma->0) =      -16.26333289


--------------------------------------------------------------------------------------------------------




--------------------------------------- Iteration      1(  11)  ---------------------------------------


    POTLOK:  cpu time    0.0413: real time    0.0415
    SETDIJ:  cpu time    0.0033: real time    0.0034
     EDDAV:  cpu time    1.7159: real time    1.7200
       DOS:  cpu time    0.0020: real time    0.0020
    CHARGE:  cpu time    0.1366: real time    0.1368
    MIXING:  cpu time    0.0014: real time    0.0014
    --------------------------------------------
      LOOP:  cpu time    1.9006: real time    1.9051

 eigenvalue-minimisations  :  2404
 total energy-change (2. order) : 0.7418386E-03  (-0.1284610E-03)
 number of electron      20.0000000 magnetization 
 augmentation part       -4.4821842 magnetization 

 Broyden mixing:
  rms(total) = 0.33047E-02    rms(broyden)= 0.33047E-02
  rms(prec ) = 0.50175E-02
  weight for this iteration     100.00

 eigenvalues of (default mixing * dielectric matrix)
  average eigenvalue GAMMA=   1.8370
  3.3972  2.2576  2.0977  1.1943  1.1943  0.8810

 Free energy of the ion-electron system (eV)
  ---------------------------------------------------
  alpha Z        PSCENC =         9.52326407
  Ewald energy   TEWEN  =      1155.93795487
  -Hartree energ DENC   =     -1777.38347738
  -exchange      EXHF   =         0.00000000
  -V(xc)+E(xc)   XCENC  =      -237.57064341
  PAW double counting   =      1141.90247799     -867.01032483
  entropy T*S    EENTRO =        -0.00000000
  eigenvalues    EBANDS =      -144.08973946
  atomic energy  EATOM  =       702.42789710
  Solvation  Ediel_sol  =         0.00000000
  ---------------------------------------------------
  free energy    TOTEN  =       -16.26259105 eV

  energy without entropy =      -16.26259105  energy(sigma->0) =      -16.26259105


--------------------------------------------------------------------------------------------------------




--------------------------------------- Iteration      1(  12)  ---------------------------------------


    POTLOK:  cpu time    0.0415: real time    0.0417
    SETDIJ:  cpu time    0.0034: real time    0.0034
     EDDAV:  cpu time    1.5251: real time    1.5288
       DOS:  cpu time    0.0020: real time    0.0020
    CHARGE:  cpu time    0.1363: real time    0.1365
    MIXING:  cpu time    0.0014: real time    0.0014
    --------------------------------------------
      LOOP:  cpu time    1.7096: real time    1.7137

 eigenvalue-minimisations  :  2020
 total energy-change (2. order) :-0.8241747E-03  (-0.2982621E-04)
 number of electron      20.0000000 magnetization 
 augmentation part       -4.4815575 magnetization 

 Broyden mixing:
  rms(total) = 0.18697E-02    rms(broyden)= 0.18697E-02
  rms(prec ) = 0.28497E-02
  weight for this iteration     100.00

 eigenvalues of (default mixing * dielectric matrix)
  average eigenvalue GAMMA=   2.0674
  4.5993  3.0859  2.5018  1.2083  1.2083  1.0264  0.8418

 Free energy of the ion-electron system (eV)
  ---------------------------------------------------
  alpha Z        PSCENC =         9.52326407
  Ewald energy   TEWEN  =      1155.93795487
  -Hartree energ DENC   =     -1778.01367045
  -exchange      EXHF   =         0.00000000
  -V(xc)+E(xc)   XCENC  =      -237.56111345
  PAW double counting   =      1143.80941327     -868.92003889
  entropy T*S    EENTRO =        -0.00000000
  eigenvalues    EBANDS =      -143.46712175
  atomic energy  EATOM  =       702.42789710
  Solvation  Ediel_sol  =         0.00000000
  ---------------------------------------------------
  free energy    TOTEN  =       -16.26341523 eV

  energy without entropy =      -16.26341523  energy(sigma->0) =      -16.26341523


--------------------------------------------------------------------------------------------------------




--------------------------------------- Iteration      1(  13)  ---------------------------------------


    POTLOK:  cpu time    0.0417: real time    0.0419
    SETDIJ:  cpu time    0.0032: real time    0.0033
     EDDAV:  cpu time    1.5636: real time    1.5673
       DOS:  cpu time    0.0020: real time    0.0020
    CHARGE:  cpu time    0.1357: real time    0.1361
    MIXING:  cpu time    0.0016: real time    0.0015
    --------------------------------------------
      LOOP:  cpu time    1.7478: real time    1.7520

 eigenvalue-minimisations  :  2098
 total energy-change (2. order) :-0.4339505E-03  (-0.8173219E-05)
 number of electron      20.0000000 magnetization 
 augmentation part       -4.4813491 magnetization 

 Broyden mixing:
  rms(total) = 0.11695E-02    rms(broyden)= 0.11695E-02
  rms(prec ) = 0.15406E-02
  weight for this iteration     100.00

 eigenvalues of (default mixing * dielectric matrix)
  average eigenvalue GAMMA=   2.2363
  5.6275  3.3015  2.4856  2.1844  1.1634  1.1634  1.0554  0.9092

 Free energy of the ion-electron system (eV)
  ---------------------------------------------------
  alpha Z        PSCENC =         9.52326407
  Ewald energy   TEWEN  =      1155.93795487
  -Hartree energ DENC   =     -1778.42979726
  -exchange      EXHF   =         0.00000000
  -V(xc)+E(xc)   XCENC  =      -237.55981922
  PAW double counting   =      1142.60450664     -867.71389483
  entropy T*S    EENTRO =        -0.00000000
  eigenvalues    EBANDS =      -143.05396055
  atomic energy  EATOM  =       702.42789710
  Solvation  Ediel_sol  =         0.00000000
  ---------------------------------------------------
  free energy    TOTEN  =       -16.26384918 eV

  energy without entropy =      -16.26384918  energy(sigma->0) =      -16.26384918


--------------------------------------------------------------------------------------------------------




--------------------------------------- Iteration      1(  14)  ---------------------------------------


    POTLOK:  cpu time    0.0428: real time    0.0429
    SETDIJ:  cpu time    0.0032: real time    0.0032
     EDDAV:  cpu time    1.6167: real time    1.6205
       DOS:  cpu time    0.0021: real time    0.0021
    CHARGE:  cpu time    0.1658: real time    0.1662
    MIXING:  cpu time    0.0016: real time    0.0016
    --------------------------------------------
      LOOP:  cpu time    1.8322: real time    1.8365

 eigenvalue-minimisations  :  2212
 total energy-change (2. order) :-0.2663045E-03  (-0.4293860E-05)
 number of electron      20.0000000 magnetization 
 augmentation part       -4.4813229 magnetization 

 Broyden mixing:
  rms(total) = 0.40643E-03    rms(broyden)= 0.40643E-03
  rms(prec ) = 0.62448E-03
  weight for this iteration     100.00

 eigenvalues of (default mixing * dielectric matrix)
  average eigenvalue GAMMA=   2.2429
  6.7406  3.0645  2.5353  2.5353  1.1866  1.1866  1.0520  0.9426  0.9426

 Free energy of the ion-electron system (eV)
  ---------------------------------------------------
  alpha Z        PSCENC =         9.52326407
  Ewald energy   TEWEN  =      1155.93795487
  -Hartree energ DENC   =     -1778.63971045
  -exchange      EXHF   =         0.00000000
  -V(xc)+E(xc)   XCENC  =      -237.55969515
  PAW double counting   =      1142.86629744     -867.97511159
  entropy T*S    EENTRO =        -0.00000000
  eigenvalues    EBANDS =      -142.84501178
  atomic energy  EATOM  =       702.42789710
  Solvation  Ediel_sol  =         0.00000000
  ---------------------------------------------------
  free energy    TOTEN  =       -16.26411548 eV

  energy without entropy =      -16.26411548  energy(sigma->0) =      -16.26411548


--------------------------------------------------------------------------------------------------------




--------------------------------------- Iteration      1(  15)  ---------------------------------------


    POTLOK:  cpu time    0.0429: real time    0.0437
    SETDIJ:  cpu time    0.0034: real time    0.0040
     EDDAV:  cpu time    1.6027: real time    1.6067
       DOS:  cpu time    0.0020: real time    0.0020
    CHARGE:  cpu time    0.1356: real time    0.1359
    MIXING:  cpu time    0.0017: real time    0.0017
    --------------------------------------------
      LOOP:  cpu time    1.7884: real time    1.7939

 eigenvalue-minimisations  :  2160
 total energy-change (2. order) :-0.5565736E-04  (-0.2046797E-06)
 number of electron      20.0000000 magnetization 
 augmentation part       -4.4813406 magnetization 

 Broyden mixing:
  rms(total) = 0.33729E-03    rms(broyden)= 0.33729E-03
  rms(prec ) = 0.50931E-03
  weight for this iteration     100.00

 eigenvalues of (default mixing * dielectric matrix)
  average eigenvalue GAMMA=   2.3565
  6.5544  4.2669  2.7018  2.7018  1.9870  1.1437  1.1437  1.1955  0.9352  0.9352

 Free energy of the ion-electron system (eV)
  ---------------------------------------------------
  alpha Z        PSCENC =         9.52326407
  Ewald energy   TEWEN  =      1155.93795487
  -Hartree energ DENC   =     -1778.65396591
  -exchange      EXHF   =         0.00000000
  -V(xc)+E(xc)   XCENC  =      -237.56002138
  PAW double counting   =      1142.69448259     -867.80317999
  entropy T*S    EENTRO =        -0.00000000
  eigenvalues    EBANDS =      -142.83060250
  atomic energy  EATOM  =       702.42789710
  Solvation  Ediel_sol  =         0.00000000
  ---------------------------------------------------
  free energy    TOTEN  =       -16.26417114 eV

  energy without entropy =      -16.26417114  energy(sigma->0) =      -16.26417114


--------------------------------------------------------------------------------------------------------




--------------------------------------- Iteration      1(  16)  ---------------------------------------


    POTLOK:  cpu time    0.0414: real time    0.0416
    SETDIJ:  cpu time    0.0034: real time    0.0034
     EDDAV:  cpu time    1.4996: real time    1.5032
       DOS:  cpu time    0.0020: real time    0.0020
    CHARGE:  cpu time    0.1439: real time    0.1441
    MIXING:  cpu time    0.0017: real time    0.0017
    --------------------------------------------
      LOOP:  cpu time    1.6920: real time    1.6961

 eigenvalue-minimisations  :  1986
 total energy-change (2. order) :-0.4704469E-04  (-0.8476304E-06)
 number of electron      20.0000000 magnetization 
 augmentation part       -4.4813539 magnetization 

 Broyden mixing:
  rms(total) = 0.12511E-03    rms(broyden)= 0.12511E-03
  rms(prec ) = 0.22567E-03
  weight for this iteration     100.00

 eigenvalues of (default mixing * dielectric matrix)
  average eigenvalue GAMMA=   2.2816
  6.7952  4.5100  2.6468  2.6468  2.2689  1.1582  1.1582  1.1838  0.9339  0.9339
  0.8621

 Free energy of the ion-electron system (eV)
  ---------------------------------------------------
  alpha Z        PSCENC =         9.52326407
  Ewald energy   TEWEN  =      1155.93795487
  -Hartree energ DENC   =     -1778.70628370
  -exchange      EXHF   =         0.00000000
  -V(xc)+E(xc)   XCENC  =      -237.56012685
  PAW double counting   =      1142.53662213     -867.64532245
  entropy T*S    EENTRO =        -0.00000000
  eigenvalues    EBANDS =      -142.77822336
  atomic energy  EATOM  =       702.42789710
  Solvation  Ediel_sol  =         0.00000000
  ---------------------------------------------------
  free energy    TOTEN  =       -16.26421818 eV

  energy without entropy =      -16.26421818  energy(sigma->0) =      -16.26421818


--------------------------------------------------------------------------------------------------------




--------------------------------------- Iteration      1(  17)  ---------------------------------------


    POTLOK:  cpu time    0.0413: real time    0.0414
    SETDIJ:  cpu time    0.0034: real time    0.0034
     EDDAV:  cpu time    1.4380: real time    1.4415
       DOS:  cpu time    0.0020: real time    0.0020
    CHARGE:  cpu time    0.1367: real time    0.1369
    MIXING:  cpu time    0.0019: real time    0.0019
    --------------------------------------------
      LOOP:  cpu time    1.6232: real time    1.6272

 eigenvalue-minimisations  :  1846
 total energy-change (2. order) :-0.2308671E-04  (-0.1146798E-06)
 number of electron      20.0000000 magnetization 
 augmentation part       -4.4813345 magnetization 

 Broyden mixing:
  rms(total) = 0.12600E-03    rms(broyden)= 0.12600E-03
  rms(prec ) = 0.18563E-03
  weight for this iteration     100.00

 eigenvalues of (default mixing * dielectric matrix)
  average eigenvalue GAMMA=   2.3975
  6.9462  5.2298  2.9502  2.9502  2.3051  2.0423  1.1548  1.1548  0.9202  0.9660
  1.0752  1.0752

 Free energy of the ion-electron system (eV)
  ---------------------------------------------------
  alpha Z        PSCENC =         9.52326407
  Ewald energy   TEWEN  =      1155.93795487
  -Hartree energ DENC   =     -1778.72171728
  -exchange      EXHF   =         0.00000000
  -V(xc)+E(xc)   XCENC  =      -237.55998804
  PAW double counting   =      1142.59588837     -867.70469392
  entropy T*S    EENTRO =        -0.00000000
  eigenvalues    EBANDS =      -142.76284645
  atomic energy  EATOM  =       702.42789710
  Solvation  Ediel_sol  =         0.00000000
  ---------------------------------------------------
  free energy    TOTEN  =       -16.26424127 eV

  energy without entropy =      -16.26424127  energy(sigma->0) =      -16.26424127


--------------------------------------------------------------------------------------------------------




--------------------------------------- Iteration      1(  18)  ---------------------------------------


    POTLOK:  cpu time    0.0412: real time    0.0414
    SETDIJ:  cpu time    0.0033: real time    0.0033
     EDDAV:  cpu time    1.5304: real time    1.5342
       DOS:  cpu time    0.0020: real time    0.0020
    CHARGE:  cpu time    0.1403: real time    0.1410
    MIXING:  cpu time    0.0019: real time    0.0019
    --------------------------------------------
      LOOP:  cpu time    1.7191: real time    1.7238

 eigenvalue-minimisations  :  2062
 total energy-change (2. order) :-0.3850959E-04  (-0.3963848E-06)
 number of electron      20.0000000 magnetization 
 augmentation part       -4.4813240 magnetization 

 Broyden mixing:
  rms(total) = 0.62655E-04    rms(broyden)= 0.62655E-04
  rms(prec ) = 0.77924E-04
  weight for this iteration     100.00

 eigenvalues of (default mixing * dielectric matrix)
  average eigenvalue GAMMA=   2.3369
  7.0772  5.4320  2.9451  2.8663  2.4965  2.0682  1.1644  1.1644  1.2182  0.8967
  1.0292  1.0292  0.9917

 Free energy of the ion-electron system (eV)
  ---------------------------------------------------
  alpha Z        PSCENC =         9.52326407
  Ewald energy   TEWEN  =      1155.93795487
  -Hartree energ DENC   =     -1778.74481813
  -exchange      EXHF   =         0.00000000
  -V(xc)+E(xc)   XCENC  =      -237.55997069
  PAW double counting   =      1142.58968557     -867.69846582
  entropy T*S    EENTRO =        -0.00000000
  eigenvalues    EBANDS =      -142.73982675
  atomic energy  EATOM  =       702.42789710
  Solvation  Ediel_sol  =         0.00000000
  ---------------------------------------------------
  free energy    TOTEN  =       -16.26427978 eV

  energy without entropy =      -16.26427978  energy(sigma->0) =      -16.26427978


--------------------------------------------------------------------------------------------------------




--------------------------------------- Iteration      1(  19)  ---------------------------------------


    POTLOK:  cpu time    0.0411: real time    0.0412
    SETDIJ:  cpu time    0.0033: real time    0.0033
     EDDAV:  cpu time    1.4507: real time    1.4542
       DOS:  cpu time    0.0020: real time    0.0020
    CHARGE:  cpu time    0.1397: real time    0.1399
    MIXING:  cpu time    0.0018: real time    0.0018
    --------------------------------------------
      LOOP:  cpu time    1.6386: real time    1.6425

 eigenvalue-minimisations  :  1898
 total energy-change (2. order) :-0.5367301E-05  (-0.1384982E-07)
 number of electron      20.0000000 magnetization 
 augmentation part       -4.4813313 magnetization 

 Broyden mixing:
  rms(total) = 0.37500E-04    rms(broyden)= 0.37500E-04
  rms(prec ) = 0.46757E-04
  weight for this iteration     100.00

 eigenvalues of (default mixing * dielectric matrix)
  average eigenvalue GAMMA=   2.5721
  7.4761  7.4761  3.8566  3.0372  2.3867  2.3867  1.9817  1.1580  1.1580  1.0941
  1.0941  0.9251  0.9500  1.0284

 Free energy of the ion-electron system (eV)
  ---------------------------------------------------
  alpha Z        PSCENC =         9.52326407
  Ewald energy   TEWEN  =      1155.93795487
  -Hartree energ DENC   =     -1778.74421201
  -exchange      EXHF   =         0.00000000
  -V(xc)+E(xc)   XCENC  =      -237.56000547
  PAW double counting   =      1142.63089549     -867.73969426
  entropy T*S    EENTRO =        -0.00000000
  eigenvalues    EBANDS =      -142.74038494
  atomic energy  EATOM  =       702.42789710
  Solvation  Ediel_sol  =         0.00000000
  ---------------------------------------------------
  free energy    TOTEN  =       -16.26428515 eV

  energy without entropy =      -16.26428515  energy(sigma->0) =      -16.26428515


--------------------------------------------------------------------------------------------------------




--------------------------------------- Iteration      1(  20)  ---------------------------------------


    POTLOK:  cpu time    0.0411: real time    0.0413
    SETDIJ:  cpu time    0.0033: real time    0.0033
     EDDAV:  cpu time    1.2465: real time    1.2495
       DOS:  cpu time    0.0020: real time    0.0020
    CHARGE:  cpu time    0.1357: real time    0.1360
    MIXING:  cpu time    0.0019: real time    0.0019
    --------------------------------------------
      LOOP:  cpu time    1.4306: real time    1.4340

 eigenvalue-minimisations  :  1532
 total energy-change (2. order) :-0.6919829E-05  (-0.3917492E-07)
 number of electron      20.0000000 magnetization 
 augmentation part       -4.4813333 magnetization 

 Broyden mixing:
  rms(total) = 0.20606E-04    rms(broyden)= 0.20606E-04
  rms(prec ) = 0.22915E-04
  weight for this iteration     100.00

 eigenvalues of (default mixing * dielectric matrix)
  average eigenvalue GAMMA=   2.5579
  7.7872  7.7872  4.0254  3.0048  2.3435  2.3435  2.1591  1.5199  1.1551  1.1551
  0.9111  1.0324  1.0324  1.0560  1.0560

 Free energy of the ion-electron system (eV)
  ---------------------------------------------------
  alpha Z        PSCENC =         9.52326407
  Ewald energy   TEWEN  =      1155.93795487
  -Hartree energ DENC   =     -1778.74839960
  -exchange      EXHF   =         0.00000000
  -V(xc)+E(xc)   XCENC  =      -237.56001012
  PAW double counting   =      1142.61183271     -867.72060232
  entropy T*S    EENTRO =        -0.00000000
  eigenvalues    EBANDS =      -142.73622878
  atomic energy  EATOM  =       702.42789710
  Solvation  Ediel_sol  =         0.00000000
  ---------------------------------------------------
  free energy    TOTEN  =       -16.26429207 eV

  energy without entropy =      -16.26429207  energy(sigma->0) =      -16.26429207


--------------------------------------------------------------------------------------------------------




--------------------------------------- Iteration      1(  21)  ---------------------------------------


    POTLOK:  cpu time    0.0412: real time    0.0414
    SETDIJ:  cpu time    0.0033: real time    0.0033
     EDDAV:  cpu time    1.4033: real time    1.4068
       DOS:  cpu time    0.0020: real time    0.0020
    --------------------------------------------
      LOOP:  cpu time    1.4498: real time    1.4534

 eigenvalue-minimisations  :  1826
 total energy-change (2. order) :-0.7851013E-06  (-0.3862511E-08)
 number of electron      20.0000000 magnetization 
 augmentation part       -4.4813333 magnetization 

 Free energy of the ion-electron system (eV)
  ---------------------------------------------------
  alpha Z        PSCENC =         9.52326407
  Ewald energy   TEWEN  =      1155.93795487
  -Hartree energ DENC   =     -1778.74987692
  -exchange      EXHF   =         0.00000000
  -V(xc)+E(xc)   XCENC  =      -237.55998781
  PAW double counting   =      1142.60916232     -867.71793172
  entropy T*S    EENTRO =        -0.00000000
  eigenvalues    EBANDS =      -142.73477477
  atomic energy  EATOM  =       702.42789710
  Solvation  Ediel_sol  =         0.00000000
  ---------------------------------------------------
  free energy    TOTEN  =       -16.26429285 eV

  energy without entropy =      -16.26429285  energy(sigma->0) =      -16.26429285


--------------------------------------------------------------------------------------------------------




 average (electrostatic) potential at core
  the test charge radii are     1.4072  1.0808
  (the norm of the test charge is              1.0000)
       1 -51.2477       2 -51.2477       3 -59.9398       4 -59.9398
 
 
 
 E-fermi :  -1.4960     XC(G=0):  -3.3422     alpha+bet : -2.6799


 k-point     1 :       0.0000    0.0000    0.0000
  band No.  band energies     occupation 
      1     -15.3199      2.00000
      2     -14.3234      2.00000
      3      -8.2467      2.00000
      4      -7.2681      2.00000
      5      -5.4179      2.00000
      6      -5.0627      2.00000
      7      -5.0392      2.00000
      8      -3.8520      2.00000
      9      -3.8302      2.00000
     10      -2.6052      2.00000
     11      -0.4659      0.00000
     12       1.3532      0.00000
     13       1.8107      0.00000
     14       1.9958      0.00000

 k-point     2 :       0.0667    0.0000    0.0000
  band No.  band energies     occupation 
      1     -15.3016      2.00000
      2     -14.3210      2.00000
      3      -8.3167      2.00000
      4      -7.3493      2.00000
      5      -5.4210      2.00000
      6      -5.0085      2.00000
      7      -4.9927      2.00000
      8      -3.8309      2.00000
      9      -3.7194      2.00000
     10      -2.6228      2.00000
     11      -0.4547      0.00000
     12       1.4055      0.00000
     13       1.6915      0.00000
     14       1.9226      0.00000

 k-point     3 :       0.1333    0.0000    0.0000
  band No.  band energies     occupation 
      1     -15.2476      2.00000
[...]
  band No.  band energies     occupation 
      1     -14.5804      2.00000
      2     -14.2725      2.00000
      3      -8.7269      2.00000
      4      -8.4750      2.00000
      5      -6.3788      2.00000
      6      -5.1701      2.00000
      7      -5.0088      2.00000
      8      -4.0512      2.00000
      9      -4.0020      2.00000
     10      -3.0723      2.00000
     11       0.1849      0.00000
     12       1.1522      0.00000
     13       1.4891      0.00000
     14       1.7810      0.00000

 k-point    47 :       0.4000    0.3333    0.0000
  band No.  band energies     occupation 
      1     -14.4861      2.00000
      2     -14.2922      2.00000
      3      -8.6345      2.00000
      4      -8.4902      2.00000
      5      -6.4057      2.00000
      6      -5.5741      2.00000
      7      -5.0023      2.00000
      8      -4.3284      2.00000
      9      -3.9589      2.00000
     10      -3.3753      2.00000
     11       0.5424      0.00000
     12       1.3462      0.00000
     13       1.6175      0.00000
     14       2.3248      0.00000

 k-point    48 :       0.4667    0.3333    0.0000
  band No.  band energies     occupation 
      1     -14.4015      2.00000
      2     -14.3352      2.00000
      3      -8.5694      2.00000
      4      -8.5231      2.00000
      5      -6.2564      2.00000
      6      -5.9623      2.00000
      7      -4.8658      2.00000
      8      -4.6241      2.00000
      9      -3.8104      2.00000
     10      -3.6138      2.00000
     11       0.8552      0.00000
     12       1.1269      0.00000
     13       2.0342      0.00000
     14       2.3261      0.00000

 k-point    49 :       0.0000    0.4000    0.0000
  band No.  band energies     occupation 
      1     -14.7297      2.00000
      2     -14.3690      2.00000
      3      -9.2315      2.00000
      4      -8.8718      2.00000
      5      -4.7786      2.00000
      6      -4.2207      2.00000
      7      -4.0456      2.00000
      8      -3.5386      2.00000
      9      -2.8223      2.00000
     10      -2.0614      2.00000
     11      -1.0046      0.00000
     12      -0.0607      0.00000
     13       0.0615      0.00000
     14       0.3387      0.00000

 k-point    50 :       0.0667    0.4000    0.0000
  band No.  band energies     occupation 
      1     -14.7173      2.00000
      2     -14.3630      2.00000
      3      -9.2042      2.00000
      4      -8.8526      2.00000
      5      -4.7727      2.00000
      6      -4.5774      2.00000
      7      -3.9371      2.00000
      8      -3.7293      2.00000
      9      -2.6369      2.00000
     10      -2.3497      2.00000
     11      -0.7544      0.00000
     12      -0.3764      0.00000
     13       0.2356      0.00000
     14       0.3691      0.00000

 k-point    51 :       0.1333    0.4000    0.0000
  band No.  band energies     occupation 
      1     -14.6812      2.00000
      2     -14.3464      2.00000
      3      -9.1238      2.00000
      4      -8.7971      2.00000
      5      -5.1143      2.00000
      6      -4.7667      2.00000
      7      -4.1415      2.00000
      8      -3.9117      2.00000
      9      -2.9282      2.00000
     10      -2.4711      2.00000
     11      -0.6233      0.00000
     12      -0.1551      0.00000
     13       0.4887      0.00000
     14       0.7958      0.00000

 k-point    52 :       0.2000    0.4000    0.0000
  band No.  band energies     occupation 
      1     -14.6251      2.00000
      2     -14.3233      2.00000
      3      -8.9953      2.00000
      4      -8.7116      2.00000
      5      -5.6345      2.00000
      6      -4.8270      2.00000
      7      -4.5562      2.00000
      8      -3.9550      2.00000
      9      -3.4985      2.00000
     10      -2.7072      2.00000
     11      -0.3402      0.00000
     12       0.5772      0.00000
     13       0.7118      0.00000
     14       1.2256      0.00000

 k-point    53 :       0.2667    0.4000    0.0000
  band No.  band energies     occupation 
      1     -14.5551      2.00000
      2     -14.3001      2.00000
      3      -8.8294      2.00000
      4      -8.6075      2.00000
      5      -6.0744      2.00000
      6      -5.1174      2.00000
      7      -4.8231      2.00000
      8      -4.0879      2.00000
      9      -3.8705      2.00000
     10      -3.0893      2.00000
     11       0.1332      0.00000
     12       1.0825      0.00000
     13       1.1803      0.00000
     14       1.5924      0.00000

 k-point    54 :       0.3333    0.4000    0.0000
  band No.  band energies     occupation 
      1     -14.4790      2.00000
      2     -14.2844      2.00000
      3      -8.6468      2.00000
      4      -8.5011      2.00000
      5      -6.3933      2.00000
      6      -5.5141      2.00000
      7      -5.0663      2.00000
      8      -4.3468      2.00000
      9      -3.9650      2.00000
     10      -3.3774      2.00000
     11       0.5324      0.00000
     12       1.3407      0.00000
     13       1.5960      0.00000
     14       2.2575      0.00000

 k-point    55 :       0.4000    0.4000    0.0000
  band No.  band energies     occupation 
      1     -14.4061      2.00000
      2     -14.2837      2.00000
      3      -8.4836      2.00000
      4      -8.4127      2.00000
      5      -6.5511      2.00000
      6      -5.9293      2.00000
      7      -5.1977      2.00000
      8      -4.6768      2.00000
      9      -3.9110      2.00000
     10      -3.5547      2.00000
     11       0.8420      0.00000
     12       1.3435      0.00000
     13       2.1137      0.00000
     14       2.7440      0.00000

 k-point    56 :       0.4667    0.4000    0.0000
  band No.  band energies     occupation 
      1     -14.3453      2.00000
      2     -14.3035      2.00000
      3      -8.3833      2.00000
      4      -8.3650      2.00000
      5      -6.5145      2.00000
      6      -6.2890      2.00000
      7      -5.1601      2.00000
      8      -4.9720      2.00000
      9      -3.8068      2.00000
     10      -3.6871      2.00000
     11       1.0852      0.00000
     12       1.2557      0.00000
     13       2.4929      0.00000
     14       2.7182      0.00000

 k-point    57 :       0.0000    0.4667    0.0000
  band No.  band energies     occupation 
      1     -14.5851      2.00000
      2     -14.4610      2.00000
      3      -9.2164      2.00000
      4      -9.0928      2.00000
      5      -4.5330      2.00000
      6      -4.3115      2.00000
      7      -3.8432      2.00000
      8      -3.6470      2.00000
      9      -2.5472      2.00000
     10      -2.2016      2.00000
     11      -0.8923      0.00000
     12      -0.4507      0.00000
     13      -0.0702      0.00000
     14       0.1291      0.00000

 k-point    58 :       0.0667    0.4667    0.0000
  band No.  band energies     occupation 
      1     -14.5748      2.00000
      2     -14.4530      2.00000
      3      -9.1884      2.00000
      4      -9.0675      2.00000
      5      -4.5461      2.00000
      6      -4.4220      2.00000
      7      -3.9987      2.00000
      8      -3.8596      2.00000
      9      -2.4622      2.00000
     10      -2.3612      2.00000
     11      -0.7976      0.00000
     12      -0.6892      0.00000
     13       0.2934      0.00000
     14       0.5963      0.00000

 k-point    59 :       0.1333    0.4667    0.0000
  band No.  band energies     occupation 
      1     -14.5453      2.00000
      2     -14.4302      2.00000
      3      -9.1054      2.00000
      4      -8.9931      2.00000
      5      -4.8349      2.00000
      6      -4.6530      2.00000
      7      -4.2363      2.00000
      8      -4.1177      2.00000
      9      -2.8366      2.00000
     10      -2.6270      2.00000
     11      -0.5446      0.00000
     12      -0.3070      0.00000
     13       0.7890      0.00000
     14       0.8922      0.00000

 k-point    60 :       0.2000    0.4667    0.0000
  band No.  band energies     occupation 
      1     -14.5003      2.00000
      2     -14.3967      2.00000
      3      -8.9711      2.00000
      4      -8.8739      2.00000
      5      -5.3524      2.00000
      6      -5.0280      2.00000
      7      -4.4277      2.00000
      8      -4.1928      2.00000
      9      -3.3585      2.00000
     10      -3.0584      2.00000
     11      -0.0156      0.00000
     12       0.3466      0.00000
     13       1.0170      0.00000
     14       1.2424      0.00000

 k-point    61 :       0.2667    0.4667    0.0000
  band No.  band energies     occupation 
      1     -14.4460      2.00000
      2     -14.3585      2.00000
      3      -8.7938      2.00000
      4      -8.7185      2.00000
      5      -5.8316      2.00000
      6      -5.4893      2.00000
      7      -4.6239      2.00000
      8      -4.3609      2.00000
      9      -3.7042      2.00000
     10      -3.4309      2.00000
     11       0.4965      0.00000
     12       0.8553      0.00000
     13       1.4282      0.00000
     14       1.6760      0.00000

 k-point    62 :       0.3333    0.4667    0.0000
  band No.  band energies     occupation 
      1     -14.3900      2.00000
      2     -14.3233      2.00000
      3      -8.5900      2.00000
      4      -8.5429      2.00000
      5      -6.2241      2.00000
      6      -5.9105      2.00000
      7      -4.9272      2.00000
      8      -4.6664      2.00000
      9      -3.8122      2.00000
     10      -3.6141      2.00000
     11       0.8423      0.00000
     12       1.1161      0.00000
     13       1.9914      0.00000
     14       2.2644      0.00000

 k-point    63 :       0.4000    0.4667    0.0000
  band No.  band energies     occupation 
      1     -14.3411      2.00000
      2     -14.2992      2.00000
      3      -8.3940      2.00000
      4      -8.3752      2.00000
      5      -6.4955      2.00000
      6      -6.2634      2.00000
      7      -5.1877      2.00000
      8      -4.9928      2.00000
      9      -3.8049      2.00000
     10      -3.6849      2.00000
     11       1.0806      0.00000
     12       1.2515      0.00000
     13       2.4839      0.00000
     14       2.7122      0.00000

 k-point    64 :       0.4667    0.4667    0.0000
  band No.  band energies     occupation 
      1     -14.3069      2.00000
      2     -14.2926      2.00000
      3      -8.2659      2.00000
      4      -8.2634      2.00000
      5      -6.6028      2.00000
      6      -6.5145      2.00000
      7      -5.2961      2.00000
      8      -5.2235      2.00000
      9      -3.7666      2.00000
     10      -3.7261      2.00000
     11       1.2364      0.00000
     12       1.2946      0.00000
     13       2.6981      0.00000
     14       2.7958      0.00000


--------------------------------------------------------------------------------------------------------


 soft charge-density along one line, spin component           1
         0         1         2         3         4         5         6         7         8         9
 total charge-density along one line
 
 pseudopotential strength for first ion, spin component:           1
 30.082 -23.433   0.000  -0.089   0.033   0.000  -0.141   0.053
-23.433  28.116  -0.000   0.051  -0.019  -0.000   0.082  -0.030
  0.000  -0.000   6.331   0.000   0.000   9.794   0.000   0.000
 -0.089   0.051   0.000   6.329   0.002   0.000   9.790   0.002
  0.033  -0.019   0.000   0.002   6.331   0.000   0.002   9.794
  0.000  -0.000   9.794   0.000   0.000  15.223   0.000   0.000
 -0.141   0.082   0.000   9.790   0.002   0.000  15.217   0.004
  0.053  -0.030   0.000   0.002   9.794   0.000   0.004  15.222
  0.000  -0.000   0.007   0.000   0.000   0.011   0.000   0.000
  0.000  -0.000  -0.020   0.000   0.000  -0.031   0.000   0.000
 -0.002   0.003  -0.000  -0.023  -0.004  -0.000  -0.035  -0.006
  0.003  -0.002   0.000   0.008  -0.020   0.000   0.012  -0.031
 -0.000   0.000  -0.000  -0.000   0.008  -0.000  -0.000   0.013
 total augmentation occupancy for first ion, spin component:           1
  2.025  -0.015  -0.000   0.238  -0.084   0.000  -0.042   0.015   0.000  -0.000   0.023   0.002   0.000
 -0.015   0.009   0.000  -0.073   0.026   0.000   0.018  -0.006   0.000  -0.000  -0.002   0.001  -0.000
  0.000   0.000   1.508   0.000   0.000  -0.406   0.000   0.000   0.119  -0.043   0.000   0.000   0.000
  0.238  -0.073   0.000   1.840  -0.000   0.000  -0.486  -0.014   0.000   0.000  -0.268  -0.017  -0.000
 -0.084   0.026   0.000  -0.000   1.492   0.000  -0.014  -0.396   0.000   0.000  -0.076  -0.045  -0.006
  0.000   0.000  -0.406  -0.000   0.000   0.118   0.000   0.000  -0.032   0.012   0.000   0.000   0.000
 -0.042   0.018   0.000  -0.486  -0.014  -0.000   0.140   0.007   0.000   0.000   0.074   0.005   0.000
  0.015  -0.006   0.000  -0.014  -0.396   0.000   0.007   0.114   0.000   0.000   0.020   0.012   0.002
  0.000  -0.000   0.119  -0.000   0.000  -0.032   0.000   0.000   0.077   0.000   0.000   0.000   0.000
  0.000   0.000  -0.043   0.000   0.000   0.012   0.000   0.000   0.000   0.021   0.000   0.000  -0.000
  0.023  -0.002   0.000  -0.268  -0.076   0.000   0.074   0.020   0.000  -0.000   0.078   0.006   0.002
  0.002   0.001  -0.000  -0.017  -0.045  -0.000   0.005   0.012   0.000   0.000   0.006   0.022   0.001
  0.000  -0.000   0.000  -0.000  -0.006  -0.000   0.000   0.002  -0.000   0.000   0.002   0.001   0.017


------------------------ aborting loop because EDIFF is reached ----------------------------------------


    CHARGE:  cpu time    0.1370: real time    0.1374
    FORLOC:  cpu time    0.0018: real time    0.0019
    FORNL :  cpu time    0.2076: real time    0.2081
    STRESS:  cpu time    0.3875: real time    0.3895
    FORCOR:  cpu time    0.0434: real time    0.0436
    FORHAR:  cpu time    0.0112: real time    0.0112
    MIXING:  cpu time    0.0009: real time    0.0009
    OFIELD:  cpu time    0.0000: real time    0.0000

  FORCE on cell =-STRESS in cart. coord.  units (eV):
  Direction    XX          YY          ZZ          XY          YZ          ZX
  --------------------------------------------------------------------------------------
  Alpha Z     9.52326     9.52326     9.52326
  Ewald    1609.74970  1613.90490 -2067.97103    -0.00000    -0.00000     0.00000
  Hartree  1730.46378  1731.97581 -1683.87990     0.00000    -0.00000     0.00000
  E(xc)     -77.67091   -77.68265   -78.89810    -0.00000     0.00000     0.00000
  Local   -3592.95229 -3598.08750  3497.00384    -0.00000    -0.00000     0.00000
  n-local   162.53144   162.70608   167.22915    -0.41647    -0.00000     0.00000
  augment   -31.87535   -31.82120   -32.80353    -0.00000     0.00000     0.00000
  Kinetic   190.27730   189.52178   189.79511     5.55372    -0.00000    -0.00000
  Fock        0.00000     0.00000     0.00000     0.00000     0.00000     0.00000
  -------------------------------------------------------------------------------------
  Total       0.04693     0.04047    -0.00119     0.00000     0.00000     0.00000
  in kB       0.20027     0.17270    -0.00509     0.00000     0.00000     0.00000
  external pressure =        0.12 kB  Pullay stress =        0.00 kB


 VOLUME and BASIS-vectors are now :
 -----------------------------------------------------------------------------
  energy-cutoff  :      600.00
  volume of cell :      375.47
      direct lattice vectors                 reciprocal lattice vectors
     4.373592051  0.000000000  0.000000000     0.228645010  0.000000000  0.000000000
     0.000000000  4.292477857  0.000000000     0.000000000  0.232965675  0.000000000
     0.000000000  0.000000000 20.000000000     0.000000000  0.000000000  0.050000000

  length of vectors
     4.373592051  4.292477857 20.000000000     0.228645010  0.232965675  0.050000000


 FORCES acting on ions
    electron-ion (+dipol)            ewald-force                    non-local-force                 convergence-correction
 -----------------------------------------------------------------------------------------------
   0.406E+01 -.245E-12 -.145E+03   -.549E+01 0.166E-14 0.148E+03   0.144E+01 0.000E+00 -.381E+01   -.106E-05 -.178E-13 -.374E-03
   0.406E+01 -.149E-13 0.145E+03   -.549E+01 0.180E-14 -.148E+03   0.144E+01 0.000E+00 0.381E+01   -.106E-05 0.153E-13 0.374E-03
   -.506E+01 0.761E-13 -.207E+03   0.549E+01 -.109E-14 0.209E+03   -.428E+00 0.000E+00 -.203E+01   -.842E-04 0.293E-13 -.102E-02
   -.506E+01 0.334E-12 0.207E+03   0.549E+01 -.928E-15 -.209E+03   -.428E+00 0.000E+00 0.203E+01   -.842E-04 -.603E-13 0.102E-02
 -----------------------------------------------------------------------------------------------
   -.202E+01 0.151E-12 -.570E-06   0.266E-14 0.145E-14 0.284E-13   0.202E+01 0.000E+00 0.000E+00   -.170E-03 -.335E-13 -.226E-10
 
 
 POSITION                                       TOTAL-FORCE (eV/Angst)
 -----------------------------------------------------------------------------------
      2.53795      3.21936     11.37531        -0.000004     -0.000000     -0.000857
      0.35115      1.07312      8.62469        -0.000004     -0.000000      0.000857
      0.14789      1.07312     11.34154         0.000004      0.000000      0.000795
      2.33469      3.21936      8.65846         0.000004     -0.000000     -0.000795
 -----------------------------------------------------------------------------------
    total drift:                               -0.000376      0.000000     -0.000001


--------------------------------------------------------------------------------------------------------



  FREE ENERGIE OF THE ION-ELECTRON SYSTEM (eV)
  ---------------------------------------------------
  free  energy   TOTEN  =       -16.26435280 eV

  energy  without entropy=      -16.26435280  energy(sigma->0) =      -16.26435280
 
 d Force = 0.3959174E-06[ 0.346E-06, 0.446E-06]  d Energy = 0.4309411E-06-0.350E-07
 d Force = 0.1677171E-01[ 0.168E-01, 0.168E-01]  d Ewald  = 0.1677171E-01-0.430E-10


--------------------------------------------------------------------------------------------------------


    POTLOK:  cpu time    0.0452: real time    0.0455


--------------------------------------------------------------------------------------------------------


 Conjugate gradient step on ions:
 trial-energy change:   -0.000000  1 .order   -0.000000   -0.000000   -0.000000
  (g-gl).g = 0.156E-06      g.g   = 0.216E-06  gl.gl    = 0.106E-04
 g(Force)  = 0.216E-06   g(Stress)= 0.000E+00 ortho     = 0.141E-07
 gamma     =   0.01466
 trial     =   2.06464
 opt step  =   8.25854  (harmonic =   9.14463) maximal distance =0.00043951
 next E    =   -16.264353   (d E  =  -0.00000)


--------------------------------------------------------------------------------------------------------


  
 reached required accuracy - stopping structural energy minimisation
 writing wavefunctions
     LOOP+:  cpu time    4.3899: real time    4.5811
    4ORBIT:  cpu time    0.0000: real time    0.0000

 total amount of memory used by VASP MPI-rank0    51686. kBytes
=======================================================================

   base      :      30000. kBytes
   nonl-proj :       6982. kBytes
   fftplans  :       2678. kBytes
   grid      :       4349. kBytes
   one-center:          8. kBytes
   wavefun   :       7669. kBytes
 
  
  
 General timing and accounting informations for this job:
 ========================================================
  
                  Total CPU time used (sec):      104.633
                            User time (sec):      103.924
                          System time (sec):        0.709
                         Elapsed time (sec):      110.409
  
                   Maximum memory used (kb):      199100.
                   Average memory used (kb):           0.
  
                          Minor page faults:       106065
                          Major page faults:           98
                 Voluntary context switches:         7052
