
     Program PWSCF v.6.6 starts on  8Sep2022 at  0: 8:41 

     This program is part of the open-source Quantum ESPRESSO suite
     for quantum simulation of materials; please cite
         "P. Giannozzi et al., J. Phys.:Condens. Matter 21 395502 (2009);
         "P. Giannozzi et al., J. Phys.:Condens. Matter 29 465901 (2017);
          URL http://www.quantum-espresso.org", 
     in publications or presentations arising from this work. More details at
     http://www.quantum-espresso.org/quote

     Parallel version (MPI), running on    24 processors

     MPI processes distributed on     1 nodes
     R & G space division:  proc/nbgrp/npool/nimage =      24
     Fft bands division:     nmany     =       1
     Reading input from INCAR-bands.pw

     Current dimensions of program PWSCF are:
     Max number of different atomic species (ntypx) = 10
     Max number of k-points (npk) =  40000
     Max angular momentum in pseudopotentials (lmaxx) =  3

     Atomic positions and unit cell read from directory:
     ./wfc-out/pwscf.save/
     Atomic positions from file used, from input discarded
 
     file In.pbe-dn-kjpaw_psl.1.0.0.UPF: wavefunction(s)  5S 5P 4D renormalized
     file Se.pbe-dn-kjpaw_psl.1.0.0.UPF: wavefunction(s)  4S 4P 3D renormalized

     Subspace diagonalization in iterative solution of the eigenvalue problem:
     a serial algorithm will be used

 
     Parallelization info
     --------------------
     sticks:   dense  smooth     PW     G-vecs:    dense   smooth      PW
     Min         102      40     11                25588     6464     981
     Max         103      41     12                25613     6483    1000
     Sum        2455     979    283               614361   155271   23821
 


     bravais-lattice index     =            4
     lattice parameter (alat)  =       7.7169  a.u.
     unit-cell volume          =    2476.4100 (a.u.)^3
     number of atoms/cell      =            4
     number of atomic types    =            2
     number of electrons       =        58.00
     number of Kohn-Sham states=           35
     kinetic-energy cutoff     =      60.0000  Ry
     charge density cutoff     =     600.0000  Ry
     Exchange-correlation= SLA PW PBX PBC
                           (   1   4   3   4   0   0   0)

     celldm(1)=   7.716923  celldm(2)=   0.000000  celldm(3)=   6.222420
     celldm(4)=   0.000000  celldm(5)=   0.000000  celldm(6)=   0.000000

     crystal axes: (cart. coord. in units of alat)
               a(1) = (   1.000000   0.000000   0.000000 )  
               a(2) = (  -0.500000   0.866025   0.000000 )  
               a(3) = (   0.000000   0.000000   6.222420 )  

     reciprocal axes: (cart. coord. in units 2 pi/alat)
               b(1) = (  1.000000  0.577350  0.000000 )  
               b(2) = (  0.000000  1.154701  0.000000 )  
               b(3) = (  0.000000  0.000000  0.160709 )  


     PseudoPot. # 1 for In read from file:
     ./In.pbe-dn-kjpaw_psl.1.0.0.UPF
     MD5 check sum: 235b15e6a7fdfd96486e0ecdcb5b12c6
     Pseudo is Projector augmented-wave + core cor, Zval = 13.0
     Generated using "atomic" code by A. Dal Corso v.6.3
     Shape of augmentation charge: PSQ
     Using radial grid of 1241 points,  6 beta functions with: 
                l(1) =   0
                l(2) =   0
                l(3) =   1
                l(4) =   1
                l(5) =   2
                l(6) =   2
     Q(r) pseudized with 0 coefficients 


     PseudoPot. # 2 for Se read from file:
     ./Se.pbe-dn-kjpaw_psl.1.0.0.UPF
     MD5 check sum: ac240dd2bae32a30e0bf3a38df9c8785
     Pseudo is Projector augmented-wave + core cor, Zval = 16.0
     Generated using "atomic" code by A. Dal Corso v.6.3
     Shape of augmentation charge: PSQ
     Using radial grid of 1211 points,  6 beta functions with: 
                l(1) =   0
                l(2) =   0
                l(3) =   1
                l(4) =   1
                l(5) =   2
                l(6) =   2
     Q(r) pseudized with 0 coefficients 


     atomic species   valence    mass     pseudopotential
        In            13.00   114.81800     In( 1.00)
        Se            16.00    78.96000     Se( 1.00)

     12 Sym. Ops. (no inversion) found



   Cartesian axes

     site n.     atom                  positions (alat units)
         1           In  tau(   1) = (  -0.0000005   0.5773506   3.4569196  )
         2           In  tau(   2) = (  -0.0000005   0.5773506   2.7655011  )
         3           Se  tau(   3) = (   0.5000005   0.2886748   2.4485832  )
         4           Se  tau(   4) = (   0.5000005   0.2886748   3.7738371  )

     number of k points=    61  Marzari-Vanderbilt smearing, width (Ry)=  0.0100
                       cart. coord. in units 2pi/alat
        k(    1) = (   0.0000000   0.0000000   0.0000000), wk =   0.0327869
        k(    2) = (   0.0166667   0.0288675   0.0000000), wk =   0.0327869
        k(    3) = (   0.0333333   0.0577350   0.0000000), wk =   0.0327869
        k(    4) = (   0.0500000   0.0866025   0.0000000), wk =   0.0327869
        k(    5) = (   0.0666667   0.1154701   0.0000000), wk =   0.0327869
        k(    6) = (   0.0833333   0.1443376   0.0000000), wk =   0.0327869
        k(    7) = (   0.1000000   0.1732051   0.0000000), wk =   0.0327869
        k(    8) = (   0.1166667   0.2020726   0.0000000), wk =   0.0327869
        k(    9) = (   0.1333333   0.2309401   0.0000000), wk =   0.0327869
        k(   10) = (   0.1500000   0.2598076   0.0000000), wk =   0.0327869
        k(   11) = (   0.1666667   0.2886751   0.0000000), wk =   0.0327869
        k(   12) = (   0.1833333   0.3175426   0.0000000), wk =   0.0327869
        k(   13) = (   0.2000000   0.3464102   0.0000000), wk =   0.0327869
        k(   14) = (   0.2166667   0.3752777   0.0000000), wk =   0.0327869
        k(   15) = (   0.2333333   0.4041452   0.0000000), wk =   0.0327869
        k(   16) = (   0.2500000   0.4330127   0.0000000), wk =   0.0327869
        k(   17) = (   0.2666667   0.4618802   0.0000000), wk =   0.0327869
        k(   18) = (   0.2833333   0.4907477   0.0000000), wk =   0.0327869
        k(   19) = (   0.3000000   0.5196152   0.0000000), wk =   0.0327869
        k(   20) = (   0.3166667   0.5484828   0.0000000), wk =   0.0327869
        k(   21) = (   0.3333333   0.5773503   0.0000000), wk =   0.0327869
        k(   22) = (   0.3416667   0.5629165   0.0000000), wk =   0.0327869
        k(   23) = (   0.3500000   0.5484828   0.0000000), wk =   0.0327869
        k(   24) = (   0.3583333   0.5340490   0.0000000), wk =   0.0327869
        k(   25) = (   0.3666667   0.5196152   0.0000000), wk =   0.0327869
        k(   26) = (   0.3750000   0.5051815   0.0000000), wk =   0.0327869
        k(   27) = (   0.3833333   0.4907477   0.0000000), wk =   0.0327869
        k(   28) = (   0.3916667   0.4763140   0.0000000), wk =   0.0327869
        k(   29) = (   0.4000000   0.4618802   0.0000000), wk =   0.0327869
        k(   30) = (   0.4083333   0.4474465   0.0000000), wk =   0.0327869
        k(   31) = (   0.4166667   0.4330127   0.0000000), wk =   0.0327869
        k(   32) = (   0.4250000   0.4185789   0.0000000), wk =   0.0327869
        k(   33) = (   0.4333333   0.4041452   0.0000000), wk =   0.0327869
        k(   34) = (   0.4416667   0.3897114   0.0000000), wk =   0.0327869
        k(   35) = (   0.4500000   0.3752777   0.0000000), wk =   0.0327869
        k(   36) = (   0.4583333   0.3608439   0.0000000), wk =   0.0327869
        k(   37) = (   0.4666667   0.3464102   0.0000000), wk =   0.0327869
        k(   38) = (   0.4750000   0.3319764   0.0000000), wk =   0.0327869
        k(   39) = (   0.4833333   0.3175426   0.0000000), wk =   0.0327869
        k(   40) = (   0.4916667   0.3031089   0.0000000), wk =   0.0327869
        k(   41) = (   0.5000000   0.2886751   0.0000000), wk =   0.0327869
        k(   42) = (   0.4750000   0.2742414   0.0000000), wk =   0.0327869
        k(   43) = (   0.4500000   0.2598076   0.0000000), wk =   0.0327869
        k(   44) = (   0.4250000   0.2453739   0.0000000), wk =   0.0327869
        k(   45) = (   0.4000000   0.2309401   0.0000000), wk =   0.0327869
        k(   46) = (   0.3750000   0.2165064   0.0000000), wk =   0.0327869
        k(   47) = (   0.3500000   0.2020726   0.0000000), wk =   0.0327869
        k(   48) = (   0.3250000   0.1876388   0.0000000), wk =   0.0327869
        k(   49) = (   0.3000000   0.1732051   0.0000000), wk =   0.0327869
        k(   50) = (   0.2750000   0.1587713   0.0000000), wk =   0.0327869
        k(   51) = (   0.2500000   0.1443376   0.0000000), wk =   0.0327869
        k(   52) = (   0.2250000   0.1299038   0.0000000), wk =   0.0327869
        k(   53) = (   0.2000000   0.1154701   0.0000000), wk =   0.0327869
        k(   54) = (   0.1750000   0.1010363   0.0000000), wk =   0.0327869
        k(   55) = (   0.1500000   0.0866025   0.0000000), wk =   0.0327869
        k(   56) = (   0.1250000   0.0721688   0.0000000), wk =   0.0327869
        k(   57) = (   0.1000000   0.0577350   0.0000000), wk =   0.0327869
        k(   58) = (   0.0750000   0.0433013   0.0000000), wk =   0.0327869
        k(   59) = (   0.0500000   0.0288675   0.0000000), wk =   0.0327869
        k(   60) = (   0.0250000   0.0144338   0.0000000), wk =   0.0327869
        k(   61) = (   0.0000000   0.0000000   0.0000000), wk =   0.0327869

     Dense  grid:   614361 G-vectors     FFT dimensions: (  64,  64, 375)

     Smooth grid:   155271 G-vectors     FFT dimensions: (  40,  40, 240)

     Estimated max dynamical RAM per process >      87.33 MB

     Estimated total dynamical RAM >       2.05 GB

     The potential is recalculated from file :
     ./wfc-out/pwscf.save/charge-density


     negative rho (up, down):  6.451E-05 0.000E+00
     Starting wfcs are   36 randomized atomic wfcs
     Checking if some PAW data can be deallocated... 

     Band Structure Calculation
     Davidson diagonalization with overlap

     ethr =  1.72E-11,  avg # of iterations = 50.9

     total cpu time spent up to now is       30.9 secs

     End of band structure calculation

          k = 0.0000 0.0000 0.0000 ( 19547 PWs)   bands (ev):

   -48.7070 -48.7070 -48.7068 -48.7068 -48.6765 -48.6765 -48.6763 -48.6763
   -48.6655 -48.6653 -16.0729 -15.9001 -15.9001 -15.8240 -15.8240 -15.8200
   -15.8200 -15.6572 -15.6571 -15.6139 -14.4544 -14.3431  -7.3007  -5.0502
    -2.5619  -2.5618  -2.4910  -2.4909  -2.1049  -0.5970   0.6249   2.8806
     2.8807   3.4814   3.5273

          k = 0.0167 0.0289 0.0000 ( 19583 PWs)   bands (ev):

   -48.7070 -48.7070 -48.7068 -48.7068 -48.6765 -48.6765 -48.6763 -48.6763
   -48.6655 -48.6653 -16.0728 -15.9025 -15.9000 -15.8265 -15.8234 -15.8203
   -15.8197 -15.6599 -15.6572 -15.6107 -14.4467 -14.3358  -7.2967  -5.0528
    -2.6190  -2.5720  -2.5459  -2.4999  -2.0944  -0.5438   0.6756   2.8218
     2.8893   3.4960   3.5324

          k = 0.0333 0.0577 0.0000 ( 19533 PWs)   bands (ev):

   -48.7069 -48.7069 -48.7068 -48.7068 -48.6765 -48.6765 -48.6763 -48.6763
   -48.6655 -48.6653 -16.0725 -15.9097 -15.8996 -15.8340 -15.8219 -15.8208
   -15.8186 -15.6661 -15.6574 -15.6029 -14.4241 -14.3142  -7.2852  -5.0614
    -2.7689  -2.6905  -2.6029  -2.5271  -2.0739  -0.4040   0.8162   2.6675
     2.9142   3.5330   3.5419

          k = 0.0500 0.0866 0.0000 ( 19513 PWs)   bands (ev):

   -48.7069 -48.7069 -48.7067 -48.7067 -48.6765 -48.6765 -48.6763 -48.6763
   -48.6654 -48.6653 -16.0720 -15.9209 -15.8992 -15.8460 -15.8217 -15.8194
   -15.8168 -15.6732 -15.6578 -15.5934 -14.3872 -14.2789  -7.2669  -5.0790
    -2.9760  -2.8840  -2.6549  -2.5727  -2.0558  -0.2158   1.0198   2.4590
     2.9508   3.5339   3.5855

          k = 0.0667 0.1155 0.0000 ( 19507 PWs)   bands (ev):

   -48.7069 -48.7069 -48.7067 -48.7067 -48.6765 -48.6765 -48.6763 -48.6763
   -48.6654 -48.6653 -16.0717 -15.9353 -15.8987 -15.8618 -15.8228 -15.8161
   -15.8144 -15.6798 -15.6582 -15.5835 -14.3374 -14.2311  -7.2434  -5.1106
    -3.2113  -3.0902  -2.7288  -2.6373  -2.0436  -0.0114   1.2560   2.2306
     2.9911   3.4722   3.6531

          k = 0.0833 0.1443 0.0000 ( 19515 PWs)   bands (ev):

   -48.7069 -48.7069 -48.7067 -48.7067 -48.6765 -48.6765 -48.6763 -48.6763
   -48.6654 -48.6652 -16.0717 -15.9516 -15.8984 -15.8804 -15.8241 -15.8121
   -15.8113 -15.6854 -15.6589 -15.5737 -14.2759 -14.1723  -7.2170  -5.1628
    -3.4539  -3.2824  -2.8252  -2.7212  -2.0385   0.1882   1.4971   2.0075
     3.0229   3.3643   3.7382

          k = 0.1000 0.1732 0.0000 ( 19509 PWs)   bands (ev):

   -48.7069 -48.7069 -48.7067 -48.7067 -48.6765 -48.6765 -48.6763 -48.6763
   -48.6654 -48.6652 -16.0724 -15.9686 -15.9006 -15.8982 -15.8255 -15.8077
   -15.8076 -15.6902 -15.6596 -15.5642 -14.2047 -14.1041  -7.1906  -5.2420
    -3.6874  -3.4416  -2.9441  -2.8243  -2.0421   0.3700   1.6935   1.8340
     3.0346   3.2539   3.8438

          k = 0.1167 0.2021 0.0000 ( 19511 PWs)   bands (ev):

   -48.7069 -48.7068 -48.7067 -48.7067 -48.6765 -48.6765 -48.6763 -48.6763
   -48.6654 -48.6652 -16.0744 -15.9849 -15.9216 -15.8983 -15.8268 -15.8037
   -15.8029 -15.6941 -15.6605 -15.5552 -14.1255 -14.0282  -7.1677  -5.3513
    -3.8993  -3.5569  -3.0845  -2.9459  -2.0563   0.5256   1.5937   1.9542
     3.0222   3.1692   3.9305

          k = 0.1333 0.2309 0.0000 ( 19493 PWs)   bands (ev):

   -48.7069 -48.7068 -48.7067 -48.7066 -48.6765 -48.6765 -48.6763 -48.6763
   -48.6654 -48.6652 -16.0784 -15.9989 -15.9426 -15.8988 -15.8280 -15.7995
   -15.7980 -15.6972 -15.6616 -15.5467 -14.0402 -13.9467  -7.1522  -5.4877
    -4.0792  -3.6259  -3.2443  -3.0843  -2.0836   0.6501   1.4464   2.1070
     2.9981   3.1237   3.8634

          k = 0.1500 0.2598 0.0000 ( 19461 PWs)   bands (ev):

   -48.7068 -48.7067 -48.7067 -48.7066 -48.6765 -48.6765 -48.6763 -48.6763
   -48.6653 -48.6652 -16.0851 -16.0095 -15.9627 -15.8997 -15.8290 -15.7953
   -15.7933 -15.6997 -15.6627 -15.5388 -13.9509 -13.8615  -7.1476  -5.6428
    -4.2192  -3.6537  -3.4203  -3.2371  -2.1260   0.7416   1.3249   2.1988
     2.9909   3.1222   3.7894

          k = 0.1667 0.2887 0.0000 ( 19437 PWs)   bands (ev):

   -48.7068 -48.7067 -48.7066 -48.7065 -48.6765 -48.6765 -48.6763 -48.6763
   -48.6653 -48.6651 -16.0942 -16.0164 -15.9817 -15.9009 -15.8297 -15.7912
   -15.7887 -15.7014 -15.6641 -15.5316 -13.8599 -13.7749  -7.1561  -5.8056
    -4.3137  -3.6497  -3.6082  -3.4008  -2.1847   0.8016   1.2282   2.2141
     3.0280   3.1604   3.7244

          k = 0.1833 0.3175 0.0000 ( 19405 PWs)   bands (ev):

   -48.7068 -48.7066 -48.7066 -48.7065 -48.6765 -48.6765 -48.6763 -48.6763
   -48.6653 -48.6651 -16.1048 -16.0203 -15.9989 -15.9025 -15.8300 -15.7876
   -15.7847 -15.7025 -15.6656 -15.5251 -13.7695 -13.6889  -7.1777  -5.9655
    -4.3609  -3.8033  -3.6307  -3.5637  -2.2601   0.8348   1.1493   2.1693
     3.1092   3.2222   3.6865

          k = 0.2000 0.3464 0.0000 ( 19401 PWs)   bands (ev):

   -48.7068 -48.7066 -48.7066 -48.7064 -48.6765 -48.6765 -48.6763 -48.6763
   -48.6653 -48.6651 -16.1156 -16.0222 -16.0143 -15.9044 -15.8300 -15.7847
   -15.7812 -15.7029 -15.6672 -15.5194 -13.6820 -13.6061  -7.2095  -6.1140
    -4.3626  -4.0000  -3.7560  -3.5709  -2.3509   0.8480   1.0784   2.0995
     3.2161   3.2732   3.7062

          k = 0.2167 0.3753 0.0000 ( 19399 PWs)   bands (ev):

   -48.7068 -48.7066 -48.7066 -48.7064 -48.6765 -48.6765 -48.6763 -48.6763
   -48.6653 -48.6651 -16.1257 -16.0275 -16.0229 -15.9065 -15.8294 -15.7825
   -15.7783 -15.7027 -15.6691 -15.5145 -13.5998 -13.5285  -7.2469  -6.2448
    -4.3253  -4.1916  -3.9296  -3.5209  -2.4549   0.8491   1.0057   2.0333
     3.2807   3.3348   3.8079

          k = 0.2333 0.4041 0.0000 ( 19425 PWs)   bands (ev):

   -48.7068 -48.7066 -48.7066 -48.7064 -48.6765 -48.6765 -48.6763 -48.6763
   -48.6653 -48.6651 -16.1344 -16.0387 -16.0230 -15.9087 -15.8285 -15.7812
   -15.7761 -15.7019 -15.6711 -15.5105 -13.5253 -13.4583  -7.2843  -6.3537
    -4.3834  -4.2460  -4.0993  -3.4667  -2.5687   0.8453   0.9249   1.9857
     3.2511   3.4598   3.9760

          k = 0.2500 0.4330 0.0000 ( 19428 PWs)   bands (ev):

   -48.7068 -48.7066 -48.7066 -48.7064 -48.6765 -48.6765 -48.6763 -48.6763
   -48.6653 -48.6651 -16.1415 -16.0476 -16.0227 -15.9110 -15.8271 -15.7808
   -15.7746 -15.7005 -15.6733 -15.5073 -13.4604 -13.3974  -7.3166  -6.4383
    -4.5524  -4.2594  -4.1508  -3.4144  -2.6880   0.8367   0.8425   1.9597
     3.2025   3.5897   4.1829

          k = 0.2667 0.4619 0.0000 ( 19418 PWs)   bands (ev):

   -48.7067 -48.7066 -48.7066 -48.7064 -48.6765 -48.6765 -48.6763 -48.6763
   -48.6653 -48.6651 -16.1468 -16.0544 -16.0224 -15.9131 -15.8253 -15.7812
   -15.7736 -15.6986 -15.6756 -15.5049 -13.4068 -13.3471  -7.3404  -6.4983
    -4.7039  -4.4045  -4.0394  -3.3680  -2.8077   0.7473   0.8445   1.9502
     3.1457   3.7231   4.4107

          k = 0.2833 0.4907 0.0000 ( 19438 PWs)   bands (ev):

   -48.7067 -48.7066 -48.7066 -48.7064 -48.6765 -48.6765 -48.6763 -48.6763
   -48.6653 -48.6651 -16.1506 -16.0593 -16.0221 -15.9149 -15.8233 -15.7823
   -15.7731 -15.6962 -15.6782 -15.5031 -13.3655 -13.3086  -7.3545  -6.5355
    -4.8309  -4.5288  -3.9250  -3.3305  -2.9207   0.6659   0.8528   1.9494
     3.0887   3.8563   4.6467

          k = 0.3000 0.5196 0.0000 ( 19434 PWs)   bands (ev):

   -48.7067 -48.7066 -48.7065 -48.7065 -48.6765 -48.6765 -48.6763 -48.6763
   -48.6653 -48.6651 -16.1529 -16.0625 -16.0218 -15.9164 -15.8214 -15.7837
   -15.7730 -15.6935 -15.6811 -15.5021 -13.3369 -13.2818  -7.3601  -6.5539
    -4.9275  -4.6261  -3.8221  -3.3035  -3.0173   0.6012   0.8656   1.9507
     3.0394   3.9801   4.8791

          k = 0.3167 0.5485 0.0000 ( 19450 PWs)   bands (ev):

   -48.7067 -48.7067 -48.7065 -48.7065 -48.6765 -48.6765 -48.6763 -48.6763
   -48.6653 -48.6651 -16.1540 -16.0642 -16.0217 -15.9174 -15.8199 -15.7850
   -15.7730 -15.6905 -15.6840 -15.5015 -13.3206 -13.2666  -7.3603  -6.5595
    -4.9884  -4.6892  -3.7496  -3.2878  -3.0835   0.5601   0.8784   1.9508
     3.0061   4.0764   5.0937

          k = 0.3333 0.5774 0.0000 ( 19458 PWs)   bands (ev):

   -48.7067 -48.7067 -48.7065 -48.7065 -48.6765 -48.6765 -48.6763 -48.6763
   -48.6653 -48.6651 -16.1544 -16.0647 -16.0217 -15.9177 -15.8192 -15.7856
   -15.7731 -15.6878 -15.6868 -15.5013 -13.3155 -13.2618  -7.3594  -6.5597
    -5.0093  -4.7116  -3.7242  -3.2828  -3.1061   0.5463   0.8844   1.9500
     2.9947   4.1162   5.2275

          k = 0.3417 0.5629 0.0000 ( 19442 PWs)   bands (ev):

   -48.7067 -48.7067 -48.7065 -48.7065 -48.6765 -48.6765 -48.6763 -48.6763
   -48.6653 -48.6651 -16.1543 -16.0646 -16.0217 -15.9176 -15.8194 -15.7854
   -15.7730 -15.6890 -15.6855 -15.5014 -13.3166 -13.2629  -7.3598  -6.5601
    -5.0040  -4.7057  -3.7298  -3.2840  -3.1013   0.5496   0.8824   1.9506
     2.9973   4.1042   5.1746

          k = 0.3500 0.5485 0.0000 ( 19450 PWs)   bands (ev):

   -48.7067 -48.7067 -48.7065 -48.7065 -48.6765 -48.6765 -48.6763 -48.6763
   -48.6653 -48.6651 -16.1542 -16.0643 -16.0217 -15.9174 -15.8199 -15.7849
   -15.7730 -15.6906 -15.6839 -15.5015 -13.3200 -13.2660  -7.3615  -6.5616
    -4.9883  -4.6880  -3.7448  -3.2872  -3.0886   0.5588   0.8761   1.9530
     3.0041   4.0664   5.0578

          k = 0.3583 0.5340 0.0000 ( 19434 PWs)   bands (ev):

   -48.7067 -48.7066 -48.7065 -48.7065 -48.6765 -48.6765 -48.6763 -48.6763
   -48.6653 -48.6651 -16.1540 -16.0639 -16.0217 -15.9169 -15.8208 -15.7840
   -15.7728 -15.6923 -15.6823 -15.5016 -13.3252 -13.2709  -7.3646  -6.5648
    -4.9626  -4.6583  -3.7662  -3.2923  -3.0712   0.5727   0.8646   1.9586
     3.0130   4.0018   4.9207

          k = 0.3667 0.5196 0.0000 ( 19440 PWs)   bands (ev):

   -48.7067 -48.7066 -48.7066 -48.7065 -48.6765 -48.6765 -48.6763 -48.6763
   -48.6653 -48.6651 -16.1538 -16.0634 -16.0217 -15.9163 -15.8220 -15.7829
   -15.7726 -15.6941 -15.6806 -15.5018 -13.3321 -13.2773  -7.3694  -6.5700
    -4.9276  -4.6169  -3.7908  -3.2990  -3.0516   0.5897   0.8476   1.9688
     3.0203   3.9121   4.7830

          k = 0.3750 0.5052 0.0000 ( 19432 PWs)   bands (ev):

   -48.7067 -48.7066 -48.7066 -48.7064 -48.6765 -48.6765 -48.6763 -48.6763
   -48.6653 -48.6651 -16.1536 -16.0627 -16.0217 -15.9154 -15.8234 -15.7815
   -15.7722 -15.6958 -15.6789 -15.5020 -13.3403 -13.2850  -7.3758  -6.5773
    -4.8843  -4.5643  -3.8160  -3.3069  -3.0318   0.6075   0.8246   1.9855
     3.0209   3.8011   4.6575

          k = 0.3833 0.4907 0.0000 ( 19408 PWs)   bands (ev):

   -48.7067 -48.7066 -48.7066 -48.7064 -48.6765 -48.6765 -48.6763 -48.6763
   -48.6653 -48.6651 -16.1535 -16.0621 -16.0217 -15.9144 -15.8249 -15.7798
   -15.7717 -15.6976 -15.6773 -15.5022 -13.3495 -13.2936  -7.3837  -6.5865
    -4.8344  -4.5015  -3.8395  -3.3158  -3.0133   0.6235   0.7954   2.0106
     3.0087   3.6742   4.5549

          k = 0.3917 0.4763 0.0000 ( 19416 PWs)   bands (ev):

   -48.7067 -48.7066 -48.7066 -48.7064 -48.6765 -48.6765 -48.6763 -48.6763
   -48.6653 -48.6651 -16.1534 -16.0614 -16.0217 -15.9133 -15.8267 -15.7781
   -15.7711 -15.6994 -15.6757 -15.5024 -13.3596 -13.3030  -7.3930  -6.5974
    -4.7797  -4.4294  -3.8593  -3.3254  -2.9968   0.6348   0.7600   2.0462
     2.9779   3.5374   4.4842

          k = 0.4000 0.4619 0.0000 ( 19454 PWs)   bands (ev):

   -48.7068 -48.7066 -48.7066 -48.7064 -48.6765 -48.6765 -48.6763 -48.6763
   -48.6653 -48.6651 -16.1534 -16.0608 -16.0217 -15.9120 -15.8285 -15.7763
   -15.7705 -15.7011 -15.6742 -15.5027 -13.3701 -13.3129  -7.4033  -6.6096
    -4.7227  -4.3496  -3.8731  -3.3353  -2.9828   0.6387   0.7184   2.0938
     2.9255   3.3963   4.4508

          k = 0.4083 0.4474 0.0000 ( 19438 PWs)   bands (ev):

   -48.7068 -48.7066 -48.7066 -48.7064 -48.6765 -48.6765 -48.6763 -48.6763
   -48.6653 -48.6651 -16.1535 -16.0602 -16.0217 -15.9106 -15.8303 -15.7744
   -15.7696 -15.7029 -15.6728 -15.5029 -13.3809 -13.3230  -7.4143  -6.6227
    -4.6662  -4.2634  -3.8791  -3.3453  -2.9713   0.6331   0.6709   2.1543
     2.8526   3.2563   4.4550

          k = 0.4167 0.4330 0.0000 ( 19434 PWs)   bands (ev):

   -48.7068 -48.7066 -48.7066 -48.7064 -48.6765 -48.6765 -48.6763 -48.6763
   -48.6653 -48.6651 -16.1536 -16.0596 -16.0217 -15.9092 -15.8321 -15.7725
   -15.7687 -15.7046 -15.6714 -15.5031 -13.3917 -13.3330  -7.4257  -6.6362
    -4.6135  -4.1728  -3.8751  -3.3551  -2.9623   0.6166   0.6180   2.2277
     2.7646   3.1219   4.4927

          k = 0.4250 0.4186 0.0000 ( 19404 PWs)   bands (ev):

   -48.7068 -48.7066 -48.7065 -48.7063 -48.6765 -48.6765 -48.6763 -48.6763
   -48.6653 -48.6651 -16.1538 -16.0591 -16.0216 -15.9077 -15.8338 -15.7706
   -15.7677 -15.7062 -15.6701 -15.5033 -13.4022 -13.3428  -7.4372  -6.6498
    -4.5674  -4.0796  -3.8596  -3.3643  -2.9555   0.5601   0.5892   2.3124
     2.6685   2.9971   4.5574

          k = 0.4333 0.4041 0.0000 ( 19384 PWs)   bands (ev):

   -48.7068 -48.7066 -48.7065 -48.7063 -48.6765 -48.6765 -48.6763 -48.6763
   -48.6652 -48.6651 -16.1541 -16.0586 -16.0216 -15.9062 -15.8355 -15.7689
   -15.7666 -15.7078 -15.6689 -15.5035 -13.4123 -13.3522  -7.4483  -6.6629
    -4.5302  -3.9861  -3.8322  -3.3727  -2.9507   0.4985   0.5518   2.4053
     2.5710   2.8862   4.6423

          k = 0.4417 0.3897 0.0000 ( 19376 PWs)   bands (ev):

   -48.7068 -48.7066 -48.7065 -48.7063 -48.6765 -48.6765 -48.6763 -48.6763
   -48.6652 -48.6651 -16.1543 -16.0582 -16.0215 -15.9047 -15.8370 -15.7673
   -15.7655 -15.7093 -15.6678 -15.5037 -13.4216 -13.3610  -7.4589  -6.6754
    -4.5025  -3.8947  -3.7942  -3.3800  -2.9477   0.4346   0.5065   2.4776
     2.4986   2.7958   4.7412

          k = 0.4500 0.3753 0.0000 ( 19368 PWs)   bands (ev):

   -48.7068 -48.7066 -48.7065 -48.7063 -48.6765 -48.6765 -48.6763 -48.6763
   -48.6652 -48.6651 -16.1546 -16.0579 -16.0215 -15.9034 -15.8384 -15.7658
   -15.7645 -15.7106 -15.6668 -15.5038 -13.4301 -13.3689  -7.4686  -6.6867
    -4.4835  -3.8081  -3.7486  -3.3858  -2.9459   0.3704   0.4560   2.3923
     2.5656   2.7504   4.8486

          k = 0.4583 0.3608 0.0000 ( 19392 PWs)   bands (ev):

   -48.7068 -48.7066 -48.7065 -48.7063 -48.6765 -48.6765 -48.6764 -48.6763
   -48.6652 -48.6651 -16.1549 -16.0576 -16.0215 -15.9022 -15.8397 -15.7645
   -15.7634 -15.7119 -15.6660 -15.5040 -13.4376 -13.3759  -7.4772  -6.6968
    -4.4715  -3.7293  -3.6995  -3.3895  -2.9452   0.3084   0.4039   2.3178
     2.5581   2.7941   4.9592

          k = 0.4667 0.3464 0.0000 ( 19376 PWs)   bands (ev):

   -48.7068 -48.7066 -48.7064 -48.7063 -48.6765 -48.6765 -48.6764 -48.6763
   -48.6652 -48.6651 -16.1552 -16.0574 -16.0214 -15.9011 -15.8407 -15.7634
   -15.7625 -15.7130 -15.6653 -15.5041 -13.4439 -13.3817  -7.4845  -6.7053
    -4.4645  -3.6615  -3.6516  -3.3907  -2.9453   0.2515   0.3540   2.2557
     2.5162   2.8816   5.0675

          k = 0.4750 0.3320 0.0000 ( 19380 PWs)   bands (ev):

   -48.7068 -48.7066 -48.7064 -48.7062 -48.6765 -48.6765 -48.6764 -48.6763
   -48.6652 -48.6650 -16.1554 -16.0572 -16.0214 -15.9002 -15.8415 -15.7626
   -15.7617 -15.7139 -15.6648 -15.5041 -13.4489 -13.3864  -7.4904  -6.7121
    -4.4607  -3.6091  -3.6078  -3.3891  -2.9458   0.2030   0.3102   2.2070
     2.4766   2.9692   5.1274

          k = 0.4833 0.3175 0.0000 ( 19362 PWs)   bands (ev):

   -48.7068 -48.7066 -48.7064 -48.7062 -48.6765 -48.6765 -48.6764 -48.6763
   -48.6652 -48.6650 -16.1556 -16.0571 -16.0214 -15.8995 -15.8422 -15.7619
   -15.7611 -15.7145 -15.6644 -15.5042 -13.4525 -13.3898  -7.4946  -6.7171
    -4.4589  -3.5757  -3.5701  -3.3851  -2.9464   0.1657   0.2760   2.1721
     2.4471   3.0415   5.0827

          k = 0.4917 0.3031 0.0000 ( 19350 PWs)   bands (ev):

   -48.7068 -48.7066 -48.7064 -48.7062 -48.6765 -48.6765 -48.6764 -48.6763
   -48.6652 -48.6650 -16.1557 -16.0571 -16.0214 -15.8991 -15.8425 -15.7615
   -15.7607 -15.7149 -15.6641 -15.5042 -13.4547 -13.3919  -7.4972  -6.7201
    -4.4582  -3.5545  -3.5485  -3.3807  -2.9469   0.1422   0.2542   2.1511
     2.4292   3.0892   5.0518

          k = 0.5000 0.2887 0.0000 ( 19362 PWs)   bands (ev):

   -48.7068 -48.7066 -48.7064 -48.7062 -48.6766 -48.6765 -48.6764 -48.6763
   -48.6652 -48.6650 -16.1557 -16.0571 -16.0214 -15.8990 -15.8427 -15.7614
   -15.7606 -15.7151 -15.6641 -15.5042 -13.4555 -13.3926  -7.4981  -6.7211
    -4.4580  -3.5472  -3.5417  -3.3788  -2.9471   0.1341   0.2468   2.1441
     2.4232   3.1059   5.0407

          k = 0.4750 0.2742 0.0000 ( 19344 PWs)   bands (ev):

   -48.7068 -48.7066 -48.7064 -48.7062 -48.6765 -48.6765 -48.6763 -48.6763
   -48.6652 -48.6650 -16.1547 -16.0559 -16.0214 -15.8990 -15.8425 -15.7618
   -15.7610 -15.7149 -15.6640 -15.5047 -13.4626 -13.3993  -7.4897  -6.7068
    -4.4682  -3.5466  -3.5422  -3.3742  -2.9274   0.1427   0.2490   2.1517
     2.4307   3.1077   5.0259

          k = 0.4500 0.2598 0.0000 ( 19364 PWs)   bands (ev):

   -48.7068 -48.7067 -48.7064 -48.7063 -48.6765 -48.6765 -48.6763 -48.6763
   -48.6652 -48.6650 -16.1517 -16.0527 -16.0215 -15.8988 -15.8421 -15.7631
   -15.7622 -15.7145 -15.6639 -15.5059 -13.4838 -13.4191  -7.4652  -6.6644
    -4.4955  -3.5611  -3.5272  -3.3605  -2.8716   0.1676   0.2563   2.1740
     2.4526   3.1127   4.9838

          k = 0.4250 0.2454 0.0000 ( 19370 PWs)   bands (ev):

   -48.7068 -48.7066 -48.7065 -48.7063 -48.6765 -48.6765 -48.6763 -48.6763
   -48.6652 -48.6651 -16.1469 -16.0473 -16.0217 -15.8986 -15.8414 -15.7651
   -15.7641 -15.7137 -15.6638 -15.5079 -13.5181 -13.4513  -7.4270  -6.5950
    -4.5316  -3.5838  -3.5025  -3.3380  -2.7877   0.2073   0.2704   2.2102
     2.4877   3.1207   4.9190

          k = 0.4000 0.2309 0.0000 ( 19388 PWs)   bands (ev):

   -48.7068 -48.7067 -48.7065 -48.7063 -48.6765 -48.6765 -48.6763 -48.6763
   -48.6652 -48.6651 -16.1402 -16.0398 -16.0218 -15.8984 -15.8406 -15.7678
   -15.7667 -15.7127 -15.6636 -15.5107 -13.5642 -13.4947  -7.3788  -6.5008
    -4.5662  -3.6124  -3.4685  -3.3069  -2.6857   0.2587   0.2940   2.2591
     2.5336   3.1308   4.8348

          k = 0.3750 0.2165 0.0000 ( 19406 PWs)   bands (ev):

   -48.7068 -48.7067 -48.7065 -48.7064 -48.6765 -48.6764 -48.6763 -48.6763
   -48.6653 -48.6651 -16.1320 -16.0304 -16.0218 -15.8981 -15.8395 -15.7712
   -15.7698 -15.7114 -15.6633 -15.5143 -13.6203 -13.5476  -7.3256  -6.3844
    -4.5892  -3.6442  -3.4255  -3.2677  -2.5753   0.3180   0.3305   2.3189
     2.5862   3.1420   4.7334

          k = 0.3500 0.2021 0.0000 ( 19430 PWs)   bands (ev):

   -48.7068 -48.7067 -48.7066 -48.7064 -48.6765 -48.6765 -48.6763 -48.6763
   -48.6653 -48.6651 -16.1226 -16.0214 -16.0189 -15.8978 -15.8381 -15.7752
   -15.7736 -15.7098 -15.6629 -15.5185 -13.6846 -13.6084  -7.2729  -6.2494
    -4.5916  -3.6757  -3.3743  -3.2210  -2.4649   0.3802   0.3838   2.3879
     2.6398   3.1530   4.6168

          k = 0.3250 0.1876 0.0000 ( 19424 PWs)   bands (ev):

   -48.7068 -48.7067 -48.7066 -48.7065 -48.6765 -48.6765 -48.6763 -48.6763
   -48.6653 -48.6651 -16.1123 -16.0202 -16.0058 -15.8976 -15.8367 -15.7795
   -15.7778 -15.7080 -15.6625 -15.5234 -13.7551 -13.6751  -7.2261  -6.1000
    -4.5663  -3.7029  -3.3156  -3.1676  -2.3615   0.4393   0.4574   2.4647
     2.6855   3.1622   4.4894

          k = 0.3000 0.1732 0.0000 ( 19422 PWs)   bands (ev):

   -48.7068 -48.7067 -48.7066 -48.7065 -48.6765 -48.6765 -48.6763 -48.6763
   -48.6653 -48.6651 -16.1019 -16.0177 -15.9910 -15.8973 -15.8350 -15.7841
   -15.7824 -15.7059 -15.6620 -15.5288 -13.8296 -13.7459  -7.1897  -5.9415
    -4.5083  -3.7212  -3.2505  -3.1084  -2.2703   0.4881   0.5543   2.5484
     2.7111   3.1679   4.3572

          k = 0.2750 0.1588 0.0000 ( 19456 PWs)   bands (ev):

   -48.7068 -48.7067 -48.7067 -48.7065 -48.6765 -48.6765 -48.6763 -48.6763
   -48.6653 -48.6652 -16.0922 -16.0134 -15.9748 -15.8972 -15.8333 -15.7888
   -15.7872 -15.7035 -15.6616 -15.5349 -13.9064 -13.8189  -7.1664  -5.7801
    -4.4156  -3.7252  -3.1800  -3.0445  -2.1944   0.5189   0.6752   2.6396
     2.7020   3.1682   4.2275

          k = 0.2500 0.1443 0.0000 ( 19480 PWs)   bands (ev):

   -48.7068 -48.7068 -48.7067 -48.7066 -48.6765 -48.6765 -48.6763 -48.6763
   -48.6653 -48.6652 -16.0841 -16.0065 -15.9576 -15.8971 -15.8316 -15.7936
   -15.7922 -15.7009 -15.6610 -15.5414 -13.9835 -13.8924  -7.1567  -5.6231
    -4.2887  -3.7087  -3.1056  -2.9772  -2.1353   0.5240   0.8188   2.6448
     2.7402   3.1616   4.1072

          k = 0.2250 0.1299 0.0000 ( 19501 PWs)   bands (ev):

   -48.7069 -48.7068 -48.7067 -48.7066 -48.6765 -48.6765 -48.6763 -48.6763
   -48.6654 -48.6652 -16.0783 -15.9966 -15.9395 -15.8971 -15.8299 -15.7982
   -15.7971 -15.6980 -15.6605 -15.5484 -14.0592 -13.9648  -7.1592  -5.4785
    -4.1308  -3.6652  -3.0288  -2.9078  -2.0923   0.4967   0.9798   2.5355
     2.8527   3.1469   3.9998

          k = 0.2000 0.1155 0.0000 ( 19491 PWs)   bands (ev):

   -48.7069 -48.7068 -48.7067 -48.7066 -48.6765 -48.6765 -48.6763 -48.6763
   -48.6654 -48.6652 -16.0746 -15.9842 -15.9210 -15.8973 -15.8281 -15.8026
   -15.8020 -15.6946 -15.6599 -15.5558 -14.1319 -14.0343  -7.1713  -5.3534
    -3.9470  -3.5893  -2.9513  -2.8381  -2.0638   0.4335   1.1466   2.3871
     2.9787   3.1236   3.9045

          k = 0.1750 0.1010 0.0000 ( 19493 PWs)   bands (ev):

   -48.7069 -48.7068 -48.7067 -48.7066 -48.6765 -48.6765 -48.6763 -48.6763
   -48.6654 -48.6652 -16.0726 -15.9700 -15.9025 -15.8976 -15.8265 -15.8066
   -15.8065 -15.6909 -15.6593 -15.5636 -14.2002 -14.0998  -7.1899  -5.2530
    -3.7434  -3.4786  -2.8752  -2.7697  -2.0476   0.3342   1.2921   2.2366
     3.0923   3.1174   3.8188

          k = 0.1500 0.0866 0.0000 ( 19505 PWs)   bands (ev):

   -48.7069 -48.7069 -48.7067 -48.7067 -48.6765 -48.6765 -48.6763 -48.6763
   -48.6654 -48.6652 -16.0718 -15.9552 -15.8980 -15.8846 -15.8249 -15.8108
   -15.8101 -15.6867 -15.6588 -15.5718 -14.2628 -14.1597  -7.2121  -5.1780
    -3.5270  -3.3354  -2.8026  -2.7047  -2.0411   0.2026   1.3555   2.1568
     3.0548   3.2630   3.7415

          k = 0.1250 0.0722 0.0000 ( 19503 PWs)   bands (ev):

   -48.7069 -48.7069 -48.7067 -48.7067 -48.6765 -48.6765 -48.6763 -48.6763
   -48.6654 -48.6652 -16.0717 -15.9406 -15.8984 -15.8679 -15.8235 -15.8146
   -15.8132 -15.6818 -15.6583 -15.5802 -14.3183 -14.2129  -7.2350  -5.1259
    -3.3061  -3.1671  -2.7357  -2.6451  -2.0424   0.0462   1.2800   2.2144
     3.0138   3.4012   3.6727

          k = 0.1000 0.0577 0.0000 ( 19505 PWs)   bands (ev):

   -48.7069 -48.7069 -48.7068 -48.7067 -48.6765 -48.6765 -48.6763 -48.6763
   -48.6654 -48.6653 -16.0719 -15.9273 -15.8989 -15.8531 -15.8223 -15.8178
   -15.8156 -15.6764 -15.6579 -15.5888 -14.3656 -14.2582  -7.2565  -5.0917
    -3.0900  -2.9852  -2.6768  -2.5927  -2.0499  -0.1246   1.1140   2.3682
     2.9728   3.5018   3.6128

          k = 0.0750 0.0433 0.0000 ( 19537 PWs)   bands (ev):

   -48.7069 -48.7069 -48.7068 -48.7068 -48.6765 -48.6765 -48.6763 -48.6763
   -48.6655 -48.6653 -16.0722 -15.9160 -15.8994 -15.8408 -15.8214 -15.8204
   -15.8176 -15.6704 -15.6576 -15.5974 -14.4037 -14.2946  -7.2750  -5.0706
    -2.8904  -2.8048  -2.6283  -2.5497  -2.0626  -0.2956   0.9302   2.5494
     2.9358   3.5400   3.5622

          k = 0.0500 0.0289 0.0000 ( 19543 PWs)   bands (ev):

   -48.7069 -48.7069 -48.7068 -48.7068 -48.6765 -48.6765 -48.6763 -48.6763
   -48.6655 -48.6653 -16.0726 -15.9073 -15.8997 -15.8315 -15.8224 -15.8206
   -15.8190 -15.6643 -15.6574 -15.6053 -14.4316 -14.3213  -7.2890  -5.0584
    -2.7223  -2.6456  -2.5919  -2.5175  -2.0795  -0.4479   0.7709   2.7161
     2.9062   3.5214   3.5397

          k = 0.0250 0.0144 0.0000 ( 19561 PWs)   bands (ev):

   -48.7070 -48.7070 -48.7068 -48.7068 -48.6765 -48.6765 -48.6763 -48.6763
   -48.6655 -48.6653 -16.0728 -15.9019 -15.9000 -15.8259 -15.8236 -15.8202
   -15.8198 -15.6593 -15.6572 -15.6114 -14.4486 -14.3376  -7.2977  -5.0521
    -2.6051  -2.5694  -2.5326  -2.4977  -2.0968  -0.5568   0.6631   2.8361
     2.8872   3.4925   3.5312

          k = 0.0000 0.0000 0.0000 ( 19547 PWs)   bands (ev):

   -48.7070 -48.7070 -48.7068 -48.7068 -48.6765 -48.6765 -48.6763 -48.6763
   -48.6655 -48.6653 -16.0729 -15.9001 -15.9001 -15.8240 -15.8240 -15.8200
   -15.8200 -15.6572 -15.6571 -15.6139 -14.4544 -14.3431  -7.3007  -5.0502
    -2.5619  -2.5618  -2.4910  -2.4909  -2.1049  -0.5970   0.6249   2.8806
     2.8807   3.4814   3.5273

     Writing output data file ./wfc-out/pwscf.save/
 
     init_run     :      0.88s CPU      1.08s WALL (       1 calls)
     electrons    :     26.08s CPU     28.21s WALL (       1 calls)

     Called by init_run:
     wfcinit      :      0.00s CPU      0.09s WALL (       1 calls)
     potinit      :      0.10s CPU      0.12s WALL (       1 calls)
     hinit0       :      0.41s CPU      0.46s WALL (       1 calls)

     Called by electrons:
     c_bands      :     26.08s CPU     28.20s WALL (       1 calls)
     v_of_rho     :      0.04s CPU      0.04s WALL (       1 calls)
     newd         :      0.15s CPU      0.18s WALL (       1 calls)
     PAW_pot      :      0.04s CPU      0.05s WALL (       1 calls)

     Called by c_bands:
     init_us_2    :      0.02s CPU      0.03s WALL (      61 calls)
     cegterg      :     24.77s CPU     25.32s WALL (     177 calls)

     Called by *egterg:
     cdiaghg      :      4.81s CPU      4.85s WALL (    3166 calls)
     h_psi        :     14.78s CPU     15.24s WALL (    3343 calls)
     s_psi        :      0.68s CPU      0.70s WALL (    3343 calls)
     g_psi        :      0.10s CPU      0.11s WALL (    3105 calls)

     Called by h_psi:
     h_psi:calbec :      1.20s CPU      1.24s WALL (    3343 calls)
     vloc_psi     :     12.56s CPU     12.98s WALL (    3343 calls)
     add_vuspsi   :      0.83s CPU      0.85s WALL (    3343 calls)

     General routines
     calbec       :      1.19s CPU      1.23s WALL (    3343 calls)
     fft          :      0.12s CPU      0.16s WALL (      13 calls)
     ffts         :      0.00s CPU      0.00s WALL (       1 calls)
     fftw         :     11.14s CPU     11.52s WALL (   92170 calls)
     interpolate  :      0.00s CPU      0.00s WALL (       1 calls)
     davcio       :      0.03s CPU      0.14s WALL (     122 calls)
 
     Parallel routines
     fft_scatt_xy :      1.73s CPU      1.79s WALL (   92184 calls)
     fft_scatt_yz :      4.47s CPU      4.62s WALL (   92184 calls)
 
     PWSCF        :     29.36s CPU     40.09s WALL

 
   This run was terminated on:   0: 9:21   8Sep2022            

=------------------------------------------------------------------------------=
   JOB DONE.
=------------------------------------------------------------------------------=
