Automatically generated mesh
      25
Reciprocal lattice
    0.00000000000000    0.00000000000000    0.00000000000000             1
    0.14285714285715    0.00000000000000    0.00000000000000             2
    0.00000000000000    0.14285714285715    0.00000000000000             2
   -0.14285714285714    0.14285714285715    0.00000000000000             2
    0.28571428571429    0.00000000000000    0.00000000000000             2
    0.00000000000000    0.28571428571429    0.00000000000000             2
   -0.28571428571428    0.28571428571429    0.00000000000000             2
    0.42857142857143    0.00000000000000    0.00000000000000             2
    0.00000000000000    0.42857142857143    0.00000000000000             2
   -0.42857142857143    0.42857142857143    0.00000000000000             2
    0.14285714285715    0.14285714285715    0.00000000000000             2
   -0.14285714285714    0.28571428571429    0.00000000000000             2
   -0.28571428571429    0.14285714285715    0.00000000000000             2
    0.28571428571429    0.14285714285715    0.00000000000000             2
   -0.14285714285714    0.42857142857143    0.00000000000000             2
   -0.42857142857143    0.28571428571429    0.00000000000000             2
   -0.28571428571428    0.42857142857143    0.00000000000000             2
    0.14285714285715    0.28571428571429    0.00000000000000             2
    0.42857142857143   -0.14285714285714    0.00000000000000             2
    0.42857142857143    0.14285714285715    0.00000000000000             2
   -0.14285714285714   -0.42857142857142    0.00000000000000             2
    0.42857142857142    0.42857142857144    0.00000000000000             2
    0.28571428571429    0.28571428571429    0.00000000000000             2
   -0.28571428571428   -0.42857142857143    0.00000000000000             2
    0.42857142857143    0.28571428571429    0.00000000000000             2
