 running on  192 total cores
 distrk:  each k-point on  192 cores,    1 groups
 distr:  one band on   24 cores,    8 groups
 using from now: INCAR     
 vasp.5.4.4.18Apr17-6-g9f103f2a35 (build Oct 01 2024 10:11:53) complex          
  
 POSCAR found type information on POSCAR  S  Se Sn Pb
 POSCAR found :  4 types and      20 ions
 scaLAPACK will be used

 ----------------------------------------------------------------------------- 
|                                                                             |
|  ADVICE TO THIS USER RUNNING 'VASP/VAMP'   (HEAR YOUR MASTER'S VOICE ...):  |
|                                                                             |
|      You have a (more or less) 'large supercell' and for larger cells       |
|      it might be more efficient to use real space projection opertators     |
|      So try LREAL= Auto  in the INCAR   file.                               |
|      Mind:          For very  accurate calculation you might also keep the  |
|      reciprocal projection scheme          (i.e. LREAL=.FALSE.)             |
|                                                                             |
 ----------------------------------------------------------------------------- 

 WARNING: PSMAXN for non-local potential too small
 WARNING: PSMAXN for non-local potential too small
 LDA part: xc-table for Pade appr. of Perdew
 WARNING: stress and forces are not correct
 POSCAR, INCAR and KPOINTS ok, starting setup
 FFT: planning ...
 WAVECAR not read
 charge-density read from file: SnSe                                    
 WARNING: random wavefunctions but no delay for mixing, default for NELMDL
 entering main loop
       N       E                     dE             d eps       ncg     rms          rms(c)
DAV:   1     0.693780828663E+03    0.69378E+03   -0.34828E+04  5128   0.130E+03
DAV:   2     0.382863437624E+02   -0.65549E+03   -0.62931E+03  7280   0.191E+02
DAV:   3    -0.770299863679E+02   -0.11532E+03   -0.11285E+03  6104   0.847E+01
DAV:   4    -0.846733873002E+02   -0.76434E+01   -0.75894E+01  7400   0.229E+01
DAV:   5    -0.848400359933E+02   -0.16665E+00   -0.16628E+00  6576   0.372E+00
DAV:   6    -0.848470727534E+02   -0.70368E-02   -0.70331E-02  7688   0.715E-01
DAV:   7    -0.848472718781E+02   -0.19912E-03   -0.19907E-03  6568   0.118E-01
DAV:   8    -0.848472827448E+02   -0.10867E-04   -0.10865E-04  7000   0.248E-02
DAV:   9    -0.848472832993E+02   -0.55444E-06   -0.55435E-06  5280   0.551E-03
   1 F= -.88221875E+02 E0= -.88221875E+02  d E =0.000000E+00
