
     Program PWSCF v.6.6 starts on  8May2023 at  6:23:52 

     This program is part of the open-source Quantum ESPRESSO suite
     for quantum simulation of materials; please cite
         "P. Giannozzi et al., J. Phys.:Condens. Matter 21 395502 (2009);
         "P. Giannozzi et al., J. Phys.:Condens. Matter 29 465901 (2017);
          URL http://www.quantum-espresso.org", 
     in publications or presentations arising from this work. More details at
     http://www.quantum-espresso.org/quote

     Parallel version (MPI), running on    24 processors

     MPI processes distributed on     1 nodes
     R & G space division:  proc/nbgrp/npool/nimage =      24
     Fft bands division:     nmany     =       1
     Reading input from INCAR-relax.pw
Warning: card &CELL ignored
Warning: card     CELL_DYNAMICS  = "BFGS" ignored
Warning: card     ! CELL_DOFREE = "XY" ignored
Warning: card / ignored

     Current dimensions of program PWSCF are:
     Max number of different atomic species (ntypx) = 10
     Max number of k-points (npk) =  40000
     Max angular momentum in pseudopotentials (lmaxx) =  3

     Subspace diagonalization in iterative solution of the eigenvalue problem:
     a serial algorithm will be used

     Message from routine setup:
     using ibrav=0 with symmetry is DISCOURAGED, use correct ibrav instead
 
     Parallelization info
     --------------------
     sticks:   dense  smooth     PW     G-vecs:    dense   smooth      PW
     Min         133      71     20                26255    10221    1506
     Max         134      72     21                26270    10233    1519
     Sum        3211    1709    485               630313   245443   36233
 


     bravais-lattice index     =            0
     lattice parameter (alat)  =       8.2935  a.u.
     unit-cell volume          =    2539.7300 (a.u.)^3
     number of atoms/cell      =            4
     number of atomic types    =            2
     number of electrons       =        40.00
     number of Kohn-Sham states=           24
     kinetic-energy cutoff     =      80.0000  Ry
     charge density cutoff     =     600.0000  Ry
     convergence threshold     =      1.0E-10
     mixing beta               =       0.7000
     number of iterations used =            8  plain     mixing
     Exchange-correlation= SLA  PW   PBE  PBE
                           (   1   4   3   4   0   0   0)
     nstep                     =          100


     celldm(1)=   8.293538  celldm(2)=   0.000000  celldm(3)=   0.000000
     celldm(4)=   0.000000  celldm(5)=   0.000000  celldm(6)=   0.000000

     crystal axes: (cart. coord. in units of alat)
               a(1) = (   1.000000   0.000000   0.000000 )  
               a(2) = (   0.000000   0.976965   0.000000 )  
               a(3) = (   0.000000   0.000000   4.557105 )  

     reciprocal axes: (cart. coord. in units 2 pi/alat)
               b(1) = (  1.000000  0.000000  0.000000 )  
               b(2) = (  0.000000  1.023578  0.000000 )  
               b(3) = (  0.000000  0.000000  0.219438 )  


     PseudoPot. # 1 for Sn read from file:
     ./Sn_pbe_v1.uspp.F.UPF
     MD5 check sum: 4cf58ce39ec5d5d420df3dd08604eb00
     Pseudo is Ultrasoft + core correction, Zval = 14.0
     Generated by new atomic code, or converted to UPF format
     Using radial grid of  891 points,  6 beta functions with: 
                l(1) =   0
                l(2) =   0
                l(3) =   1
                l(4) =   1
                l(5) =   2
                l(6) =   2
     Q(r) pseudized with  6 coefficients,  rinner =    1.200   1.200   1.200
                                                       1.200   1.200

     PseudoPot. # 2 for Se read from file:
     ./Se_pbe_v1.uspp.F.UPF
     MD5 check sum: 1b3568f3a8ae88f9a2a0ad0698632c85
     Pseudo is Ultrasoft + core correction, Zval =  6.0
     Generated by new atomic code, or converted to UPF format
     Using radial grid of  877 points,  6 beta functions with: 
                l(1) =   0
                l(2) =   0
                l(3) =   1
                l(4) =   1
                l(5) =   2
                l(6) =   2
     Q(r) pseudized with  8 coefficients,  rinner =    1.300   1.300   1.300
                                                       1.300   1.300

     atomic species   valence    mass     pseudopotential
        Sn            14.00   118.71000     Sn( 1.00)
        Se             6.00    78.96000     Se( 1.00)

      2 Sym. Ops. (no inversion) found ( 1 have fractional translation)



   Cartesian axes

     site n.     atom                  positions (alat units)
         1           Sn  tau(   1) = (   0.5839905   0.7327237   0.6587580  )
         2           Sn  tau(   2) = (   0.0839891   0.2442412   0.0300295  )
         3           Se  tau(   3) = (   0.0301155   0.2442412   0.6485637  )
         4           Se  tau(   4) = (   0.5301129   0.7327237   0.0402162  )

     number of k points=    64  Marzari-Vanderbilt smearing, width (Ry)=  0.0100
                       cart. coord. in units 2pi/alat
        k(    1) = (   0.0000000   0.0000000   0.0000000), wk =   0.0088889
        k(    2) = (   0.0000000   0.0682385   0.0000000), wk =   0.0177778
        k(    3) = (   0.0000000   0.1364771   0.0000000), wk =   0.0177778
        k(    4) = (   0.0000000   0.2047156   0.0000000), wk =   0.0177778
        k(    5) = (   0.0000000   0.2729542   0.0000000), wk =   0.0177778
        k(    6) = (   0.0000000   0.3411927   0.0000000), wk =   0.0177778
        k(    7) = (   0.0000000   0.4094313   0.0000000), wk =   0.0177778
        k(    8) = (   0.0000000   0.4776698   0.0000000), wk =   0.0177778
        k(    9) = (   0.0666667   0.0000000   0.0000000), wk =   0.0177778
        k(   10) = (   0.0666667   0.0682385   0.0000000), wk =   0.0355556
        k(   11) = (   0.0666667   0.1364771   0.0000000), wk =   0.0355556
        k(   12) = (   0.0666667   0.2047156   0.0000000), wk =   0.0355556
        k(   13) = (   0.0666667   0.2729542   0.0000000), wk =   0.0355556
        k(   14) = (   0.0666667   0.3411927   0.0000000), wk =   0.0355556
        k(   15) = (   0.0666667   0.4094313   0.0000000), wk =   0.0355556
        k(   16) = (   0.0666667   0.4776698   0.0000000), wk =   0.0355556
        k(   17) = (   0.1333333   0.0000000   0.0000000), wk =   0.0177778
        k(   18) = (   0.1333333   0.0682385   0.0000000), wk =   0.0355556
        k(   19) = (   0.1333333   0.1364771   0.0000000), wk =   0.0355556
        k(   20) = (   0.1333333   0.2047156   0.0000000), wk =   0.0355556
        k(   21) = (   0.1333333   0.2729542   0.0000000), wk =   0.0355556
        k(   22) = (   0.1333333   0.3411927   0.0000000), wk =   0.0355556
        k(   23) = (   0.1333333   0.4094313   0.0000000), wk =   0.0355556
        k(   24) = (   0.1333333   0.4776698   0.0000000), wk =   0.0355556
        k(   25) = (   0.2000000   0.0000000   0.0000000), wk =   0.0177778
        k(   26) = (   0.2000000   0.0682385   0.0000000), wk =   0.0355556
        k(   27) = (   0.2000000   0.1364771   0.0000000), wk =   0.0355556
        k(   28) = (   0.2000000   0.2047156   0.0000000), wk =   0.0355556
        k(   29) = (   0.2000000   0.2729542   0.0000000), wk =   0.0355556
        k(   30) = (   0.2000000   0.3411927   0.0000000), wk =   0.0355556
        k(   31) = (   0.2000000   0.4094313   0.0000000), wk =   0.0355556
        k(   32) = (   0.2000000   0.4776698   0.0000000), wk =   0.0355556
        k(   33) = (   0.2666667   0.0000000   0.0000000), wk =   0.0177778
        k(   34) = (   0.2666667   0.0682385   0.0000000), wk =   0.0355556
        k(   35) = (   0.2666667   0.1364771   0.0000000), wk =   0.0355556
        k(   36) = (   0.2666667   0.2047156   0.0000000), wk =   0.0355556
        k(   37) = (   0.2666667   0.2729542   0.0000000), wk =   0.0355556
        k(   38) = (   0.2666667   0.3411927   0.0000000), wk =   0.0355556
        k(   39) = (   0.2666667   0.4094313   0.0000000), wk =   0.0355556
        k(   40) = (   0.2666667   0.4776698   0.0000000), wk =   0.0355556
        k(   41) = (   0.3333333   0.0000000   0.0000000), wk =   0.0177778
        k(   42) = (   0.3333333   0.0682385   0.0000000), wk =   0.0355556
        k(   43) = (   0.3333333   0.1364771   0.0000000), wk =   0.0355556
        k(   44) = (   0.3333333   0.2047156   0.0000000), wk =   0.0355556
        k(   45) = (   0.3333333   0.2729542   0.0000000), wk =   0.0355556
        k(   46) = (   0.3333333   0.3411927   0.0000000), wk =   0.0355556
        k(   47) = (   0.3333333   0.4094313   0.0000000), wk =   0.0355556
        k(   48) = (   0.3333333   0.4776698   0.0000000), wk =   0.0355556
        k(   49) = (   0.4000000   0.0000000   0.0000000), wk =   0.0177778
        k(   50) = (   0.4000000   0.0682385   0.0000000), wk =   0.0355556
        k(   51) = (   0.4000000   0.1364771   0.0000000), wk =   0.0355556
        k(   52) = (   0.4000000   0.2047156   0.0000000), wk =   0.0355556
        k(   53) = (   0.4000000   0.2729542   0.0000000), wk =   0.0355556
        k(   54) = (   0.4000000   0.3411927   0.0000000), wk =   0.0355556
        k(   55) = (   0.4000000   0.4094313   0.0000000), wk =   0.0355556
        k(   56) = (   0.4000000   0.4776698   0.0000000), wk =   0.0355556
        k(   57) = (   0.4666667   0.0000000   0.0000000), wk =   0.0177778
        k(   58) = (   0.4666667   0.0682385   0.0000000), wk =   0.0355556
        k(   59) = (   0.4666667   0.1364771   0.0000000), wk =   0.0355556
        k(   60) = (   0.4666667   0.2047156   0.0000000), wk =   0.0355556
        k(   61) = (   0.4666667   0.2729542   0.0000000), wk =   0.0355556
        k(   62) = (   0.4666667   0.3411927   0.0000000), wk =   0.0355556
        k(   63) = (   0.4666667   0.4094313   0.0000000), wk =   0.0355556
        k(   64) = (   0.4666667   0.4776698   0.0000000), wk =   0.0355556

     Dense  grid:   630313 G-vectors     FFT dimensions: (  72,  64, 300)

     Smooth grid:   245443 G-vectors     FFT dimensions: (  48,  48, 216)

     Estimated max dynamical RAM per process >     127.84 MB

     Estimated total dynamical RAM >       3.00 GB

     Initial potential from superposition of free atoms

     starting charge   37.99977, renormalised to   40.00000

     negative rho (up, down):  2.850E-03 0.000E+00
     Starting wfcs are   26 randomized atomic wfcs

     total cpu time spent up to now is        2.9 secs

     Self-consistent Calculation

     iteration #  1     ecut=    80.00 Ry     beta= 0.70
     Davidson diagonalization with overlap
     ethr =  1.00E-02,  avg # of iterations =  3.8

     negative rho (up, down):  5.670E-04 0.000E+00

     total cpu time spent up to now is        8.2 secs

     total energy              =    -413.24209910 Ry
     estimated scf accuracy    <       1.34616876 Ry

     iteration #  2     ecut=    80.00 Ry     beta= 0.70
     Davidson diagonalization with overlap
     ethr =  3.37E-03,  avg # of iterations =  2.2

     negative rho (up, down):  1.127E-04 0.000E+00

     total cpu time spent up to now is       13.3 secs

     total energy              =    -413.63851120 Ry
     estimated scf accuracy    <       0.66514499 Ry

     iteration #  3     ecut=    80.00 Ry     beta= 0.70
     Davidson diagonalization with overlap
     ethr =  1.66E-03,  avg # of iterations =  2.0

     negative rho (up, down):  2.500E-05 0.000E+00

     total cpu time spent up to now is       17.6 secs

     total energy              =    -413.79961985 Ry
     estimated scf accuracy    <       0.02346526 Ry

     iteration #  4     ecut=    80.00 Ry     beta= 0.70
     Davidson diagonalization with overlap
     ethr =  5.87E-05,  avg # of iterations =  2.9

     negative rho (up, down):  2.480E-05 0.000E+00

     total cpu time spent up to now is       22.3 secs

     total energy              =    -413.80357245 Ry
     estimated scf accuracy    <       0.00094430 Ry

     iteration #  5     ecut=    80.00 Ry     beta= 0.70
     Davidson diagonalization with overlap
     ethr =  2.36E-06,  avg # of iterations =  6.7

     negative rho (up, down):  2.780E-05 0.000E+00

     total cpu time spent up to now is       28.0 secs

     total energy              =    -413.80376398 Ry
     estimated scf accuracy    <       0.00062299 Ry

     iteration #  6     ecut=    80.00 Ry     beta= 0.70
     Davidson diagonalization with overlap
     ethr =  1.56E-06,  avg # of iterations =  2.6

     negative rho (up, down):  2.731E-05 0.000E+00

     total cpu time spent up to now is       32.5 secs

     total energy              =    -413.80384932 Ry
     estimated scf accuracy    <       0.00005905 Ry

     iteration #  7     ecut=    80.00 Ry     beta= 0.70
     Davidson diagonalization with overlap
     ethr =  1.48E-07,  avg # of iterations =  3.7

     negative rho (up, down):  2.753E-05 0.000E+00

     total cpu time spent up to now is       37.3 secs

     total energy              =    -413.80386501 Ry
     estimated scf accuracy    <       0.00000225 Ry

     iteration #  8     ecut=    80.00 Ry     beta= 0.70
     Davidson diagonalization with overlap
     ethr =  5.62E-09,  avg # of iterations =  4.8

     negative rho (up, down):  2.776E-05 0.000E+00

     total cpu time spent up to now is       43.0 secs

     total energy              =    -413.80386722 Ry
     estimated scf accuracy    <       0.00000144 Ry

     iteration #  9     ecut=    80.00 Ry     beta= 0.70
     Davidson diagonalization with overlap
     ethr =  3.60E-09,  avg # of iterations =  2.0

     negative rho (up, down):  2.793E-05 0.000E+00

     total cpu time spent up to now is       47.2 secs

     total energy              =    -413.80386733 Ry
     estimated scf accuracy    <       0.00000018 Ry

     iteration # 10     ecut=    80.00 Ry     beta= 0.70
     Davidson diagonalization with overlap
     ethr =  4.41E-10,  avg # of iterations =  2.2

     negative rho (up, down):  2.792E-05 0.000E+00

     total cpu time spent up to now is       51.6 secs

     total energy              =    -413.80386739 Ry
     estimated scf accuracy    <          9.6E-09 Ry

     iteration # 11     ecut=    80.00 Ry     beta= 0.70
     Davidson diagonalization with overlap
     ethr =  2.40E-11,  avg # of iterations =  3.9

     negative rho (up, down):  2.792E-05 0.000E+00

     total cpu time spent up to now is       57.1 secs

     total energy              =    -413.80386739 Ry
     estimated scf accuracy    <          4.7E-10 Ry

     iteration # 12     ecut=    80.00 Ry     beta= 0.70
     Davidson diagonalization with overlap
     ethr =  1.18E-12,  avg # of iterations =  4.1

     negative rho (up, down):  2.792E-05 0.000E+00

     total cpu time spent up to now is       62.7 secs

     End of self-consistent calculation

          k = 0.0000 0.0000 0.0000 ( 30755 PWs)   bands (ev):

   -22.1852 -22.1774 -22.1772 -22.1720 -22.1707 -22.1473 -22.1428 -22.1404
   -22.1306 -22.1274 -14.2227 -13.1964  -7.1626  -6.1497  -4.3440  -3.9591
    -3.9282  -2.7445  -2.7207  -1.4876   0.6236   2.3985   2.8722   3.0327

          k = 0.0000 0.0682 0.0000 ( 30741 PWs)   bands (ev):

   -22.1846 -22.1776 -22.1770 -22.1725 -22.1702 -22.1474 -22.1428 -22.1402
   -22.1308 -22.1274 -14.2029 -13.1923  -7.2294  -6.2288  -4.3463  -3.9519
    -3.8526  -2.7483  -2.5995  -1.5012   0.6356   2.4774   2.8478   2.8927

          k = 0.0000 0.1365 0.0000 ( 30745 PWs)   bands (ev):

   -22.1832 -22.1784 -22.1760 -22.1736 -22.1690 -22.1477 -22.1428 -22.1394
   -22.1317 -22.1275 -14.1445 -13.1825  -7.4063  -6.4495  -4.3257  -3.8793
    -3.6915  -2.6965  -2.3416  -1.5470   0.6776   2.3580   2.6260   2.6428

          k = 0.0000 0.2047 0.0000 ( 30715 PWs)   bands (ev):

   -22.1813 -22.1796 -22.1749 -22.1745 -22.1673 -22.1483 -22.1427 -22.1382
   -22.1329 -22.1276 -14.0508 -13.1736  -7.6384  -6.7658  -4.2477  -3.7421
    -3.4789  -2.6112  -2.0039  -1.6315   0.7642   1.7137   2.1647   2.6378

          k = 0.0000 0.2730 0.0000 ( 30683 PWs)   bands (ev):

   -22.1810 -22.1801 -22.1755 -22.1730 -22.1650 -22.1492 -22.1424 -22.1368
   -22.1344 -22.1280 -13.9277 -13.1760  -7.8671  -7.1215  -4.1064  -3.5525
    -3.2479  -2.5189  -1.7416  -1.6300   0.9098   1.0669   1.6854   2.2955

          k = 0.0000 0.3412 0.0000 ( 30675 PWs)   bands (ev):

   -22.1822 -22.1808 -22.1744 -22.1718 -22.1623 -22.1505 -22.1419 -22.1359
   -22.1351 -22.1285 -13.7838 -13.2016  -8.0433  -7.4676  -3.9120  -3.3301
    -3.0541  -2.4561  -1.8159  -1.2614   0.4872   1.1166   1.2980   1.7833

          k = 0.0000 0.4094 0.0000 ( 30623 PWs)   bands (ev):

   -22.1831 -22.1820 -22.1729 -22.1711 -22.1594 -22.1522 -22.1411 -22.1375
   -22.1333 -22.1292 -13.6310 -13.2603  -8.1323  -7.7666  -3.6805  -3.1482
    -2.9445  -2.4659  -1.7407  -1.0196   0.1166   1.0799   1.1609   1.4471

          k = 0.0000 0.4777 0.0000 ( 30566 PWs)   bands (ev):

   -22.1833 -22.1830 -22.1717 -22.1710 -22.1567 -22.1543 -22.1401 -22.1389
   -22.1317 -22.1303 -13.4834 -13.3559  -8.1152  -7.9895  -3.4353  -3.2192
    -2.7630  -2.5744  -1.4802  -1.1511   0.2215   0.6514   1.0724   1.2674

          k = 0.0667 0.0000 0.0000 ( 30731 PWs)   bands (ev):

   -22.1850 -22.1774 -22.1773 -22.1713 -22.1710 -22.1473 -22.1426 -22.1404
   -22.1306 -22.1276 -14.2046 -13.1949  -7.2310  -6.2327  -4.3422  -3.8978
    -3.8889  -2.7240  -2.6122  -1.5068   0.6364   2.4476   2.7415   2.9826

          k = 0.0667 0.0682 0.0000 ( 30730 PWs)   bands (ev):

   -22.1844 -22.1777 -22.1769 -22.1724 -22.1699 -22.1474 -22.1426 -22.1401
   -22.1310 -22.1276 -14.1849 -13.1908  -7.2870  -6.3025  -4.3375  -4.0509
    -3.6642  -2.8251  -2.4132  -1.5176   0.6502   2.4834   2.5164   2.9652

          k = 0.0667 0.1365 0.0000 ( 30724 PWs)   bands (ev):

   -22.1830 -22.1786 -22.1758 -22.1738 -22.1685 -22.1477 -22.1427 -22.1392
   -22.1318 -22.1276 -14.1268 -13.1807  -7.4392  -6.5005  -4.3074  -4.1119
    -3.3985  -2.8633  -2.1110  -1.5533   0.6964   1.9301   2.6177   2.8984

          k = 0.0667 0.2047 0.0000 ( 30719 PWs)   bands (ev):

   -22.1812 -22.1799 -22.1752 -22.1743 -22.1667 -22.1483 -22.1427 -22.1380
   -22.1331 -22.1277 -14.0338 -13.1713  -7.6464  -6.7917  -4.2271  -4.0703
    -3.1313  -2.8176  -1.7971  -1.6161   0.7863   1.3394   2.3707   2.5266

          k = 0.0667 0.2730 0.0000 ( 30705 PWs)   bands (ev):

   -22.1813 -22.1804 -22.1755 -22.1728 -22.1644 -22.1492 -22.1425 -22.1365
   -22.1345 -22.1280 -13.9116 -13.1727  -7.8567  -7.1269  -4.0886  -3.9368
    -2.9063  -2.7255  -1.6828  -1.5256   0.8346   0.9278   1.8375   2.0490

          k = 0.0667 0.3412 0.0000 ( 30663 PWs)   bands (ev):

   -22.1826 -22.1813 -22.1742 -22.1715 -22.1618 -22.1505 -22.1420 -22.1361
   -22.1349 -22.1284 -13.7691 -13.1969  -8.0219  -7.4586  -3.8993  -3.7321
    -2.7949  -2.6437  -1.6840  -1.3527   0.5048   1.0570   1.3669   1.6123

          k = 0.0667 0.4094 0.0000 ( 30626 PWs)   bands (ev):

   -22.1835 -22.1826 -22.1726 -22.1708 -22.1591 -22.1521 -22.1412 -22.1376
   -22.1332 -22.1292 -13.6179 -13.2538  -8.1057  -7.7481  -3.6756  -3.4925
    -2.8392  -2.6489  -1.5665  -1.2924   0.3607   0.7437   1.3601   1.4832

          k = 0.0667 0.4777 0.0000 ( 30603 PWs)   bands (ev):

   -22.1838 -22.1835 -22.1713 -22.1707 -22.1565 -22.1542 -22.1402 -22.1390
   -22.1316 -22.1302 -13.4724 -13.3472  -8.0879  -7.9650  -3.4501  -3.3345
    -2.9051  -2.7776  -1.4026  -1.3042   0.3201   0.4334   1.4176   1.7090

          k = 0.1333 0.0000 0.0000 ( 30701 PWs)   bands (ev):

   -22.1843 -22.1779 -22.1769 -22.1720 -22.1695 -22.1474 -22.1420 -22.1402
   -22.1309 -22.1282 -14.1512 -13.1927  -7.4088  -6.4593  -4.3131  -3.8076
    -3.7014  -2.6660  -2.3309  -1.5670   0.6811   2.2664   2.5395   2.7615

          k = 0.1333 0.0682 0.0000 ( 30716 PWs)   bands (ev):

   -22.1838 -22.1783 -22.1764 -22.1729 -22.1686 -22.1475 -22.1423 -22.1397
   -22.1313 -22.1282 -14.1318 -13.1883  -7.4404  -6.5069  -4.2981  -4.0855
    -3.3805  -2.8498  -2.0946  -1.5674   0.6991   1.9151   2.5481   2.9450

          k = 0.1333 0.1365 0.0000 ( 30717 PWs)   bands (ev):

   -22.1825 -22.1793 -22.1753 -22.1745 -22.1670 -22.1478 -22.1426 -22.1387
   -22.1323 -22.1280 -14.0748 -13.1773  -7.5329  -6.6481  -4.3166  -4.2511
    -3.0390  -3.0267  -1.7695  -1.5664   0.7547   1.3817   2.3497   3.0497

          k = 0.1333 0.2047 0.0000 ( 30706 PWs)   bands (ev):

   -22.1812 -22.1807 -22.1757 -22.1738 -22.1651 -22.1484 -22.1428 -22.1375
   -22.1336 -22.1279 -13.9837 -13.1661  -7.6727  -6.8712  -4.4224  -4.1668
    -3.1135  -2.7489  -1.5548  -1.5503   0.8464   0.9556   1.8302   2.9128

          k = 0.1333 0.2730 0.0000 ( 30684 PWs)   bands (ev):

   -22.1823 -22.1813 -22.1752 -22.1722 -22.1630 -22.1493 -22.1427 -22.1360
   -22.1350 -22.1281 -13.8644 -13.1647  -7.8290  -7.1469  -4.3957  -4.0383
    -3.0877  -2.6158  -1.5580  -1.4911   0.7847   0.9150   1.3571   2.5514

          k = 0.1333 0.3412 0.0000 ( 30653 PWs)   bands (ev):

   -22.1838 -22.1827 -22.1734 -22.1708 -22.1607 -22.1505 -22.1422 -22.1365
   -22.1343 -22.1284 -13.7259 -13.1846  -7.9601  -7.4347  -4.2520  -3.8669
    -3.0275  -2.6535  -1.7319  -1.4065   0.6880   0.8588   1.3560   2.1479

          k = 0.1333 0.4094 0.0000 ( 30611 PWs)   bands (ev):

   -22.1848 -22.1841 -22.1717 -22.1700 -22.1583 -22.1521 -22.1415 -22.1379
   -22.1327 -22.1290 -13.5801 -13.2359  -8.0276  -7.6944  -4.0191  -3.6727
    -3.0486  -2.8124  -1.8483  -1.4059   0.4998   0.9476   1.6028   1.9019

          k = 0.1333 0.4777 0.0000 ( 30614 PWs)   bands (ev):

   -22.1853 -22.1851 -22.1705 -22.1699 -22.1560 -22.1539 -22.1404 -22.1392
   -22.1312 -22.1300 -13.4409 -13.3226  -8.0074  -7.8929  -3.7426  -3.5607
    -3.1401  -3.0182  -1.7574  -1.5553   0.5679   0.7951   1.9029   1.9997

          k = 0.2000 0.0000 0.0000 ( 30692 PWs)   bands (ev):

   -22.1834 -22.1786 -22.1764 -22.1734 -22.1668 -22.1476 -22.1412 -22.1398
   -22.1314 -22.1292 -14.0655 -13.1952  -7.6357  -6.7751  -4.2287  -3.6614
    -3.4466  -2.5816  -1.9538  -1.6680   0.7722   1.6657   2.2524   2.5015

          k = 0.2000 0.0682 0.0000 ( 30729 PWs)   bands (ev):

   -22.1829 -22.1791 -22.1759 -22.1741 -22.1661 -22.1477 -22.1417 -22.1392
   -22.1319 -22.1290 -14.0467 -13.1902  -7.6432  -6.7987  -4.2092  -4.0217
    -3.0845  -2.8018  -1.7433  -1.6447   0.7944   1.3308   2.3049   2.5669

          k = 0.2000 0.1365 0.0000 ( 30691 PWs)   bands (ev):

   -22.1819 -22.1802 -22.1754 -22.1747 -22.1646 -22.1480 -22.1423 -22.1380
   -22.1330 -22.1286 -13.9916 -13.1775  -7.6694  -6.8735  -4.3996  -4.1537
    -3.1151  -2.7231  -1.5594  -1.5134   0.8538   0.9546   1.8167   2.9342

          k = 0.2000 0.2047 0.0000 ( 30688 PWs)   bands (ev):

   -22.1819 -22.1816 -22.1759 -22.1731 -22.1628 -22.1486 -22.1427 -22.1366
   -22.1343 -22.1283 -13.9038 -13.1631  -7.7206  -7.0058  -4.6575  -4.0707
    -3.3257  -2.5375  -1.5715  -1.4024   0.8825   0.8889   1.3639   3.0584

          k = 0.2000 0.2730 0.0000 ( 30659 PWs)   bands (ev):

   -22.1837 -22.1829 -22.1744 -22.1714 -22.1609 -22.1494 -22.1427 -22.1357
   -22.1351 -22.1282 -13.7896 -13.1566  -7.7934  -7.1908  -4.7624  -3.9666
    -3.4027  -2.5348  -1.8953  -1.2737   0.6833   1.1282   1.3356   2.8514

          k = 0.2000 0.3412 0.0000 ( 30652 PWs)   bands (ev):

   -22.1855 -22.1848 -22.1724 -22.1699 -22.1590 -22.1506 -22.1424 -22.1371
   -22.1336 -22.1284 -13.6581 -13.1692  -7.8655  -7.4048  -4.7124  -3.8379
    -3.4108  -2.6576  -2.2522  -1.3444   0.5921   1.4773   1.5446   2.5295

          k = 0.2000 0.4094 0.0000 ( 30628 PWs)   bands (ev):

   -22.1868 -22.1863 -22.1705 -22.1690 -22.1571 -22.1520 -22.1416 -22.1383
   -22.1321 -22.1289 -13.5213 -13.2108  -7.9030  -7.6120  -4.5296  -3.7334
    -3.4591  -2.8579  -2.3980  -1.6217   0.7617   1.6690   1.8249   2.3268

          k = 0.2000 0.4777 0.0000 ( 30625 PWs)   bands (ev):

   -22.1874 -22.1872 -22.1693 -22.1687 -22.1553 -22.1535 -22.1407 -22.1395
   -22.1307 -22.1296 -13.3929 -13.2862  -7.8774  -7.7776  -4.2493  -3.9272
    -3.3348  -3.0977  -2.2584  -1.9639   1.0767   1.4344   2.1282   2.3483

          k = 0.2667 0.0000 0.0000 ( 30744 PWs)   bands (ev):

   -22.1821 -22.1794 -22.1760 -22.1751 -22.1635 -22.1480 -22.1401 -22.1393
   -22.1321 -22.1305 -13.9526 -13.2109  -7.8532  -7.1222  -4.0853  -3.4659
    -3.1823  -2.4921  -1.7859  -1.5368   0.9232   1.0480   1.7682   2.2048

          k = 0.2667 0.0682 0.0000 ( 30741 PWs)   bands (ev):

   -22.1818 -22.1799 -22.1756 -22.1755 -22.1630 -22.1481 -22.1409 -22.1384
   -22.1327 -22.1300 -13.9348 -13.2050  -7.8428  -7.1263  -4.0662  -3.8738
    -2.8412  -2.7183  -1.7101  -1.4189   0.8280   0.9450   1.8083   2.1050

          k = 0.2667 0.1365 0.0000 ( 30720 PWs)   bands (ev):

   -22.1815 -22.1812 -22.1763 -22.1742 -22.1617 -22.1484 -22.1418 -22.1370
   -22.1339 -22.1294 -13.8825 -13.1895  -7.8161  -7.1436  -4.3590  -4.0129
    -3.1106  -2.5842  -1.4806  -1.4564   0.7840   0.9444   1.3350   2.5836

          k = 0.2667 0.2047 0.0000 ( 30676 PWs)   bands (ev):

   -22.1832 -22.1826 -22.1755 -22.1725 -22.1601 -22.1489 -22.1424 -22.1356
   -22.1352 -22.1288 -13.7996 -13.1701  -7.7843  -7.1864  -4.7491  -3.9428
    -3.4379  -2.5271  -1.8366  -1.2530   0.6977   1.1371   1.3303   2.8641

          k = 0.2667 0.2730 0.0000 ( 30683 PWs)   bands (ev):

   -22.1853 -22.1847 -22.1734 -22.1706 -22.1586 -22.1496 -22.1426 -22.1365
   -22.1342 -22.1285 -13.6928 -13.1559  -7.7615  -7.2664  -4.9924  -3.8955
    -3.6167  -2.5972  -2.3258  -1.3021   0.6482   1.5492   1.6600   2.8381

          k = 0.2667 0.3412 0.0000 ( 30682 PWs)   bands (ev):

   -22.1874 -22.1870 -22.1712 -22.1690 -22.1571 -22.1506 -22.1423 -22.1377
   -22.1327 -22.1285 -13.5716 -13.1576  -7.7524  -7.3819  -5.0619  -3.8664
    -3.7232  -2.7587  -2.6912  -1.6133   0.8820   1.8482   2.1795   2.6449

          k = 0.2667 0.4094 0.0000 ( 30658 PWs)   bands (ev):

   -22.1890 -22.1887 -22.1693 -22.1679 -22.1557 -22.1518 -22.1417 -22.1387
   -22.1313 -22.1287 -13.4479 -13.1854  -7.7424  -7.5124  -4.9608  -4.0080
    -3.7396  -2.9940  -2.7536  -1.9850   1.2192   2.1906   2.2693   2.6878

          k = 0.2667 0.4777 0.0000 ( 30657 PWs)   bands (ev):

   -22.1898 -22.1897 -22.1681 -22.1676 -22.1544 -22.1531 -22.1407 -22.1397
   -22.1302 -22.1293 -13.3349 -13.2448  -7.7063  -7.6281  -4.7181  -4.3773
    -3.5371  -3.2706  -2.5895  -2.3200   1.5798   1.9404   2.5292   2.7692

          k = 0.3333 0.0000 0.0000 ( 30718 PWs)   bands (ev):

   -22.1807 -22.1800 -22.1768 -22.1759 -22.1599 -22.1487 -22.1389 -22.1385
   -22.1329 -22.1319 -13.8202 -13.2490  -8.0161  -7.4551  -3.8918  -3.2325
    -2.9953  -2.4313  -1.8395  -1.1275   0.4824   1.1391   1.3886   1.7390

          k = 0.3333 0.0682 0.0000 ( 30713 PWs)   bands (ev):

   -22.1807 -22.1806 -22.1770 -22.1753 -22.1596 -22.1488 -22.1400 -22.1373
   -22.1338 -22.1311 -13.8036 -13.2418  -7.9949  -7.4453  -3.8756  -3.6622
    -2.7485  -2.6518  -1.6707  -1.1874   0.4877   1.1131   1.3260   1.6949

          k = 0.3333 0.1365 0.0000 ( 30708 PWs)   bands (ev):

   -22.1822 -22.1816 -22.1765 -22.1740 -22.1586 -22.1489 -22.1411 -22.1359
   -22.1350 -22.1302 -13.7552 -13.2222  -7.9342  -7.4197  -4.2119  -3.8322
    -3.0885  -2.6385  -1.5684  -1.3473   0.7217   0.8601   1.3395   2.2011

          k = 0.3333 0.2047 0.0000 ( 30694 PWs)   bands (ev):

   -22.1844 -22.1838 -22.1747 -22.1721 -22.1574 -22.1493 -22.1418 -22.1363
   -22.1345 -22.1295 -13.6791 -13.1957  -7.8431  -7.3895  -4.6985  -3.7869
    -3.5081  -2.6509  -2.1294  -1.2926   0.6198   1.5042   1.5430   2.5443

          k = 0.3333 0.2730 0.0000 ( 30669 PWs)   bands (ev):

   -22.1869 -22.1865 -22.1724 -22.1701 -22.1562 -22.1500 -22.1421 -22.1374
   -22.1331 -22.1290 -13.5824 -13.1708  -7.7380  -7.3707  -5.0631  -3.8851
    -3.7330  -2.7512  -2.6340  -1.5937   0.9012   1.8555   2.2097   2.6478

          k = 0.3333 0.3412 0.0000 ( 30692 PWs)   bands (ev):

   -22.1892 -22.1890 -22.1701 -22.1683 -22.1552 -22.1508 -22.1420 -22.1383
   -22.1318 -22.1287 -13.4749 -13.1581  -7.6405  -7.3776  -5.2625  -4.0853
    -3.9008  -2.9542  -2.8783  -1.9645   1.2707   2.2602   2.5855   2.8812

          k = 0.3333 0.4094 0.0000 ( 30673 PWs)   bands (ev):

   -22.1910 -22.1909 -22.1683 -22.1671 -22.1543 -22.1518 -22.1414 -22.1391
   -22.1306 -22.1287 -13.3683 -13.1678  -7.5663  -7.4117  -5.2717  -4.3996
    -3.9759  -3.2520  -2.8458  -2.2642   1.6134   2.4314   2.6930   3.3395

          k = 0.3333 0.4777 0.0000 ( 30681 PWs)   bands (ev):

   -22.1920 -22.1919 -22.1671 -22.1667 -22.1536 -22.1527 -22.1406 -22.1399
   -22.1297 -22.1290 -13.2754 -13.2066  -7.5110  -7.4605  -5.1001  -4.7881
    -3.8366  -3.5735  -2.6952  -2.4986   1.9232   2.2005   3.0773   3.3420

          k = 0.4000 0.0000 0.0000 ( 30688 PWs)   bands (ev):

   -22.1803 -22.1793 -22.1783 -22.1762 -22.1566 -22.1498 -22.1376 -22.1375
   -22.1339 -22.1333 -13.6782 -13.3164  -8.0946  -7.7402  -3.6608  -2.9970
    -2.9802  -2.4400  -1.7060  -0.8596   0.1186   1.1769   1.2126   1.4230

          k = 0.4000 0.0682 0.0000 ( 30689 PWs)   bands (ev):

   -22.1810 -22.1802 -22.1776 -22.1756 -22.1564 -22.1498 -22.1389 -22.1362
   -22.1350 -22.1324 -13.6632 -13.3075  -8.0682  -7.7211  -3.6502  -3.4195
    -2.8364  -2.6673  -1.4888  -1.0932   0.3368   0.7864   1.4625   1.4634

          k = 0.4000 0.1365 0.0000 ( 30704 PWs)   bands (ev):

   -22.1828 -22.1822 -22.1760 -22.1741 -22.1557 -22.1499 -22.1401 -22.1363
   -22.1348 -22.1313 -13.6198 -13.2826  -7.9908  -7.6663  -3.9846  -3.6281
    -3.1395  -2.8156  -1.6494  -1.2956   0.5303   0.9507   1.5890   1.9688

          k = 0.4000 0.2047 0.0000 ( 30727 PWs)   bands (ev):

   -22.1853 -22.1849 -22.1739 -22.1721 -22.1549 -22.1501 -22.1409 -22.1374
   -22.1334 -22.1303 -13.5524 -13.2469  -7.8682  -7.5836  -4.5269  -3.7170
    -3.5369  -2.8502  -2.2460  -1.5453   0.8056   1.7160   1.8261   2.3309

          k = 0.4000 0.2730 0.0000 ( 30697 PWs)   bands (ev):

   -22.1881 -22.1878 -22.1715 -22.1699 -22.1541 -22.1505 -22.1414 -22.1383
   -22.1321 -22.1296 -13.4684 -13.2087  -7.7132  -7.4872  -4.9772  -4.1186
    -3.6516  -2.9699  -2.6895  -1.9557   1.2537   2.2134   2.3079   2.7192

          k = 0.4000 0.3412 0.0000 ( 30685 PWs)   bands (ev):

   -22.1906 -22.1905 -22.1692 -22.1680 -22.1536 -22.1511 -22.1413 -22.1390
   -22.1310 -22.1291 -13.3778 -13.1782  -7.5486  -7.3961  -5.2895  -4.4792
    -3.8930  -3.2281  -2.8380  -2.2618   1.6266   2.4397   2.7176   3.4224

          k = 0.4000 0.4094 0.0000 ( 30720 PWs)   bands (ev):

   -22.1926 -22.1926 -22.1675 -22.1667 -22.1532 -22.1518 -22.1409 -22.1395
   -22.1300 -22.1288 -13.2922 -13.1661  -7.4089  -7.3299  -5.4237  -4.8112
    -4.0968  -3.5769  -2.7944  -2.4403   1.9210   2.4291   3.1989   3.8161

          k = 0.4000 0.4777 0.0000 ( 30702 PWs)   bands (ev):

   -22.1937 -22.1937 -22.1664 -22.1662 -22.1529 -22.1524 -22.1404 -22.1399
   -22.1293 -22.1289 -13.2235 -13.1802  -7.3251  -7.3027  -5.3605  -5.1305
    -4.0911  -3.8947  -2.6898  -2.5702   2.1567   2.3298   3.5599   3.7842

          k = 0.4667 0.0000 0.0000 ( 30652 PWs)   bands (ev):

   -22.1801 -22.1794 -22.1780 -22.1769 -22.1537 -22.1515 -22.1363 -22.1362
   -22.1351 -22.1348 -13.5389 -13.4148  -8.0739  -7.9525  -3.4101  -3.1689
    -2.7380  -2.5454  -1.3927  -1.0239   0.2615   0.7016   1.1703   1.3633

          k = 0.4667 0.0682 0.0000 ( 30697 PWs)   bands (ev):

   -22.1810 -22.1806 -22.1770 -22.1762 -22.1536 -22.1514 -22.1376 -22.1363
   -22.1349 -22.1336 -13.5258 -13.4039  -8.0465  -7.9276  -3.4140  -3.2642
    -2.9335  -2.7962  -1.2672  -1.1209   0.3185   0.4613   1.5136   1.7121

          k = 0.4667 0.1365 0.0000 ( 30715 PWs)   bands (ev):

   -22.1830 -22.1828 -22.1753 -22.1745 -22.1532 -22.1513 -22.1389 -22.1376
   -22.1336 -22.1324 -13.4883 -13.3728  -7.9659  -7.8548  -3.7157  -3.5137
    -3.2140  -3.0407  -1.5731  -1.4046   0.5968   0.8143   1.8767   2.0128

          k = 0.4667 0.2047 0.0000 ( 30711 PWs)   bands (ev):

   -22.1857 -22.1856 -22.1731 -22.1724 -22.1528 -22.1512 -22.1398 -22.1386
   -22.1323 -22.1313 -13.4311 -13.3265  -7.8366  -7.7395  -4.2672  -3.9663
    -3.3298  -3.0868  -2.1297  -1.8640   1.1303   1.4889   2.1248   2.3336

          k = 0.4667 0.2730 0.0000 ( 30705 PWs)   bands (ev):

   -22.1887 -22.1886 -22.1707 -22.1701 -22.1525 -22.1513 -22.1404 -22.1393
   -22.1312 -22.1303 -13.3618 -13.2729  -7.6688  -7.5924  -4.7600  -4.4527
    -3.4636  -3.2216  -2.5433  -2.2849   1.6199   1.9788   2.5664   2.8145

          k = 0.4667 0.3412 0.0000 ( 30711 PWs)   bands (ev):

   -22.1914 -22.1914 -22.1686 -22.1681 -22.1524 -22.1516 -22.1405 -22.1397
   -22.1302 -22.1296 -13.2907 -13.2224  -7.4817  -7.4323  -5.1445  -4.8579
    -3.7572  -3.5191  -2.6928  -2.4983   1.9413   2.2164   3.1261   3.4135

          k = 0.4667 0.4094 0.0000 ( 30713 PWs)   bands (ev):

   -22.1935 -22.1935 -22.1670 -22.1667 -22.1524 -22.1520 -22.1404 -22.1399
   -22.1295 -22.1291 -13.2290 -13.1859  -7.3104  -7.2885  -5.3861  -5.1650
    -4.0550  -3.8678  -2.6922  -2.5730   2.1633   2.3361   3.5719   3.7964

          k = 0.4667 0.4777 0.0000 ( 30690 PWs)   bands (ev):

   -22.1947 -22.1946 -22.1661 -22.1659 -22.1524 -22.1523 -22.1401 -22.1400
   -22.1290 -22.1288 -13.1874 -13.1726  -7.2044  -7.2000  -5.4598  -5.3728
    -4.1957  -4.1226  -2.6527  -2.6124   2.3077   2.3666   3.8086   3.9347

     the Fermi energy is    -0.7947 ev

!    total energy              =    -413.80386739 Ry
     estimated scf accuracy    <          5.5E-11 Ry
     smearing contrib. (-TS)   =       0.00008877 Ry
     internal energy E=F+TS    =    -413.80395616 Ry

     The total energy is F=E-TS. E is the sum of the following terms:
     one-electron contribution =   -1187.81973152 Ry
     hartree contribution      =     606.10915500 Ry
     xc contribution           =    -154.41636166 Ry
     ewald contribution        =     322.32298201 Ry

     convergence has been achieved in  12 iterations

     negative rho (up, down):  2.792E-05 0.000E+00

     Forces acting on atoms (cartesian axes, Ry/au):

     atom    1 type  1   force =    -0.00058276    0.00000000    0.00037647
     atom    2 type  1   force =    -0.00058292    0.00000000   -0.00038201
     atom    3 type  2   force =     0.00058202    0.00000000    0.00024556
     atom    4 type  2   force =     0.00058366    0.00000000   -0.00024002

     Total force =     0.001328     Total SCF correction =     0.000020

     BFGS Geometry Optimization

     number of scf cycles    =   1
     number of bfgs steps    =   0

     energy   new            =    -413.8038673938 Ry

     new trust radius        =       0.0006969423 bohr
     new conv_thr            =            1.0E-10 Ry


ATOMIC_POSITIONS (crystal)
Sn            0.5839202228        0.7500000000        0.1445662192
Sn            0.0839187917        0.2500000000        0.0065794979
Se            0.0301857209        0.2500000000        0.1423257439
Se            0.5301832386        0.7500000000        0.0088185930



     Writing output data file ./wfc-out/pwscf.save/
     NEW-OLD atomic charge density approx. for the potential

     negative rho (up, down):  3.363E-05 0.000E+00

     total cpu time spent up to now is       66.5 secs

     Self-consistent Calculation

     iteration #  1     ecut=    80.00 Ry     beta= 0.70
     Davidson diagonalization with overlap
     ethr =  1.00E-06,  avg # of iterations =  2.0

     Threshold (ethr) on eigenvalues was too large:
     Diagonalizing with lowered threshold

     Davidson diagonalization with overlap
     ethr =  1.13E-10,  avg # of iterations =  6.7

     negative rho (up, down):  2.883E-05 0.000E+00

     total cpu time spent up to now is       78.1 secs

     total energy              =    -413.80386908 Ry
     estimated scf accuracy    <       0.00000007 Ry

     iteration #  2     ecut=    80.00 Ry     beta= 0.70
     Davidson diagonalization with overlap
     ethr =  1.82E-10,  avg # of iterations =  2.1

     negative rho (up, down):  2.811E-05 0.000E+00

     total cpu time spent up to now is       82.5 secs

     total energy              =    -413.80386907 Ry
     estimated scf accuracy    <       0.00000005 Ry

     iteration #  3     ecut=    80.00 Ry     beta= 0.70
     Davidson diagonalization with overlap
     ethr =  1.22E-10,  avg # of iterations =  2.0

     negative rho (up, down):  2.797E-05 0.000E+00

     total cpu time spent up to now is       86.8 secs

     total energy              =    -413.80386909 Ry
     estimated scf accuracy    <          5.6E-09 Ry

     iteration #  4     ecut=    80.00 Ry     beta= 0.70
     Davidson diagonalization with overlap
     ethr =  1.41E-11,  avg # of iterations =  2.8

     negative rho (up, down):  2.793E-05 0.000E+00

     total cpu time spent up to now is       91.4 secs

     total energy              =    -413.80386909 Ry
     estimated scf accuracy    <       0.00000002 Ry

     iteration #  5     ecut=    80.00 Ry     beta= 0.70
     Davidson diagonalization with overlap
     ethr =  1.41E-11,  avg # of iterations =  2.6

     negative rho (up, down):  2.792E-05 0.000E+00

     total cpu time spent up to now is       95.8 secs

     total energy              =    -413.80386909 Ry
     estimated scf accuracy    <          2.8E-10 Ry

     iteration #  6     ecut=    80.00 Ry     beta= 0.70
     Davidson diagonalization with overlap
     ethr =  7.00E-13,  avg # of iterations =  2.6

     negative rho (up, down):  2.792E-05 0.000E+00

     total cpu time spent up to now is      100.4 secs

     End of self-consistent calculation

          k = 0.0000 0.0000 0.0000 ( 30755 PWs)   bands (ev):

   -22.1852 -22.1775 -22.1773 -22.1720 -22.1707 -22.1473 -22.1429 -22.1405
   -22.1307 -22.1275 -14.2215 -13.1956  -7.1619  -6.1495  -4.3436  -3.9588
    -3.9270  -2.7436  -2.7210  -1.4876   0.6232   2.4009   2.8725   3.0339

          k = 0.0000 0.0682 0.0000 ( 30741 PWs)   bands (ev):

   -22.1847 -22.1776 -22.1771 -22.1725 -22.1702 -22.1474 -22.1429 -22.1403
   -22.1309 -22.1275 -14.2017 -13.1916  -7.2288  -6.2287  -4.3458  -3.9512
    -3.8517  -2.7480  -2.5993  -1.5012   0.6352   2.4798   2.8491   2.8926

          k = 0.0000 0.1365 0.0000 ( 30745 PWs)   bands (ev):

   -22.1832 -22.1784 -22.1761 -22.1736 -22.1691 -22.1478 -22.1429 -22.1395
   -22.1318 -22.1276 -14.1433 -13.1818  -7.4056  -6.4494  -4.3251  -3.8786
    -3.6906  -2.6962  -2.3413  -1.5470   0.6772   2.3583   2.6265   2.6448

          k = 0.0000 0.2047 0.0000 ( 30715 PWs)   bands (ev):

   -22.1813 -22.1797 -22.1750 -22.1746 -22.1673 -22.1484 -22.1428 -22.1383
   -22.1330 -22.1278 -14.0497 -13.1729  -7.6377  -6.7656  -4.2470  -3.7413
    -3.4780  -2.6108  -2.0037  -1.6314   0.7638   1.7138   2.1648   2.6387

          k = 0.0000 0.2730 0.0000 ( 30683 PWs)   bands (ev):

   -22.1810 -22.1801 -22.1756 -22.1731 -22.1650 -22.1493 -22.1425 -22.1369
   -22.1345 -22.1281 -13.9266 -13.1752  -7.8663  -7.1211  -4.1057  -3.5516
    -3.2470  -2.5183  -1.7415  -1.6297   0.9093   1.0669   1.6851   2.2954

          k = 0.0000 0.3412 0.0000 ( 30675 PWs)   bands (ev):

   -22.1823 -22.1808 -22.1745 -22.1719 -22.1623 -22.1506 -22.1420 -22.1360
   -22.1352 -22.1286 -13.7828 -13.2007  -8.0426  -7.4672  -3.9112  -3.3290
    -3.0533  -2.4553  -1.8159  -1.2610   0.4869   1.1162   1.2974   1.7828

          k = 0.0000 0.4094 0.0000 ( 30623 PWs)   bands (ev):

   -22.1831 -22.1820 -22.1729 -22.1712 -22.1595 -22.1522 -22.1412 -22.1376
   -22.1335 -22.1293 -13.6300 -13.2594  -8.1315  -7.7661  -3.6797  -3.1469
    -2.9438  -2.4650  -1.7405  -1.0190   0.1160   1.0790   1.1606   1.4463

          k = 0.0000 0.4777 0.0000 ( 30566 PWs)   bands (ev):

   -22.1834 -22.1830 -22.1717 -22.1711 -22.1568 -22.1543 -22.1402 -22.1390
   -22.1318 -22.1304 -13.4824 -13.3550  -8.1145  -7.9890  -3.4344  -3.2182
    -2.7620  -2.5734  -1.4798  -1.1505   0.2208   0.6508   1.0714   1.2664

          k = 0.0667 0.0000 0.0000 ( 30731 PWs)   bands (ev):

   -22.1850 -22.1774 -22.1773 -22.1714 -22.1711 -22.1474 -22.1427 -22.1405
   -22.1308 -22.1277 -14.2034 -13.1942  -7.2304  -6.2326  -4.3418  -3.8965
    -3.8886  -2.7232  -2.6125  -1.5067   0.6360   2.4499   2.7427   2.9827

          k = 0.0667 0.0682 0.0000 ( 30730 PWs)   bands (ev):

   -22.1845 -22.1778 -22.1769 -22.1725 -22.1700 -22.1475 -22.1427 -22.1402
   -22.1311 -22.1277 -14.1837 -13.1901  -7.2864  -6.3024  -4.3370  -4.0502
    -3.6634  -2.8247  -2.4131  -1.5175   0.6498   2.4842   2.5188   2.9651

          k = 0.0667 0.1365 0.0000 ( 30724 PWs)   bands (ev):

   -22.1830 -22.1787 -22.1759 -22.1739 -22.1686 -22.1478 -22.1428 -22.1393
   -22.1319 -22.1277 -14.1257 -13.1800  -7.4385  -6.5003  -4.3068  -4.1111
    -3.3977  -2.8630  -2.1107  -1.5532   0.6959   1.9303   2.6195   2.8988

          k = 0.0667 0.2047 0.0000 ( 30719 PWs)   bands (ev):

   -22.1812 -22.1800 -22.1752 -22.1744 -22.1668 -22.1484 -22.1428 -22.1381
   -22.1332 -22.1278 -14.0326 -13.1705  -7.6456  -6.7914  -4.2264  -4.0695
    -3.1304  -2.8173  -1.7967  -1.6160   0.7859   1.3393   2.3709   2.5269

          k = 0.0667 0.2730 0.0000 ( 30705 PWs)   bands (ev):

   -22.1814 -22.1804 -22.1756 -22.1729 -22.1645 -22.1493 -22.1426 -22.1366
   -22.1346 -22.1281 -13.9105 -13.1720  -7.8560  -7.1266  -4.0879  -3.9360
    -2.9054  -2.7251  -1.6827  -1.5252   0.8342   0.9273   1.8370   2.0489

          k = 0.0667 0.3412 0.0000 ( 30663 PWs)   bands (ev):

   -22.1827 -22.1813 -22.1742 -22.1716 -22.1619 -22.1506 -22.1421 -22.1362
   -22.1350 -22.1285 -13.7680 -13.1961  -8.0212  -7.4582  -3.8985  -3.7312
    -2.7939  -2.6431  -1.6838  -1.3522   0.5043   1.0566   1.3661   1.6119

          k = 0.0667 0.4094 0.0000 ( 30626 PWs)   bands (ev):

   -22.1836 -22.1826 -22.1726 -22.1709 -22.1592 -22.1522 -22.1413 -22.1377
   -22.1333 -22.1293 -13.6169 -13.2530  -8.1050  -7.7476  -3.6748  -3.4915
    -2.8383  -2.6480  -1.5661  -1.2920   0.3601   0.7430   1.3594   1.4826

          k = 0.0667 0.4777 0.0000 ( 30603 PWs)   bands (ev):

   -22.1839 -22.1835 -22.1714 -22.1708 -22.1566 -22.1542 -22.1403 -22.1391
   -22.1317 -22.1303 -13.4714 -13.3463  -8.0873  -7.9645  -3.4492  -3.3335
    -2.9043  -2.7767  -1.4022  -1.3038   0.3195   0.4326   1.4168   1.7081

          k = 0.1333 0.0000 0.0000 ( 30701 PWs)   bands (ev):

   -22.1844 -22.1779 -22.1769 -22.1720 -22.1696 -22.1475 -22.1421 -22.1403
   -22.1310 -22.1284 -14.1500 -13.1919  -7.4082  -6.4592  -4.3127  -3.8064
    -3.7010  -2.6651  -2.3311  -1.5669   0.6806   2.2675   2.5419   2.7615

          k = 0.1333 0.0682 0.0000 ( 30716 PWs)   bands (ev):

   -22.1839 -22.1783 -22.1765 -22.1729 -22.1687 -22.1476 -22.1424 -22.1398
   -22.1314 -22.1283 -14.1307 -13.1875  -7.4399  -6.5068  -4.2976  -4.0846
    -3.3797  -2.8493  -2.0945  -1.5673   0.6987   1.9156   2.5503   2.9453

          k = 0.1333 0.1365 0.0000 ( 30717 PWs)   bands (ev):

   -22.1826 -22.1793 -22.1754 -22.1745 -22.1671 -22.1479 -22.1427 -22.1388
   -22.1324 -22.1281 -14.0737 -13.1765  -7.5323  -6.6480  -4.3158  -4.2505
    -3.0386  -3.0258  -1.7691  -1.5663   0.7542   1.3818   2.3505   3.0499

          k = 0.1333 0.2047 0.0000 ( 30706 PWs)   bands (ev):

   -22.1812 -22.1807 -22.1757 -22.1739 -22.1652 -22.1485 -22.1429 -22.1376
   -22.1337 -22.1281 -13.9825 -13.1653  -7.6720  -6.8710  -4.4217  -4.1661
    -3.1133  -2.7479  -1.5543  -1.5501   0.8460   0.9552   1.8300   2.9128

          k = 0.1333 0.2730 0.0000 ( 30684 PWs)   bands (ev):

   -22.1823 -22.1814 -22.1752 -22.1723 -22.1630 -22.1494 -22.1428 -22.1361
   -22.1351 -22.1282 -13.8633 -13.1639  -7.8282  -7.1466  -4.3950  -4.0376
    -3.0875  -2.6149  -1.5574  -1.4909   0.7841   0.9146   1.3564   2.5514

          k = 0.1333 0.3412 0.0000 ( 30653 PWs)   bands (ev):

   -22.1838 -22.1828 -22.1735 -22.1709 -22.1607 -22.1506 -22.1423 -22.1366
   -22.1344 -22.1285 -13.7249 -13.1838  -7.9593  -7.4343  -4.2512  -3.8661
    -3.0271  -2.6527  -1.7316  -1.4061   0.6874   0.8583   1.3554   2.1477

          k = 0.1333 0.4094 0.0000 ( 30611 PWs)   bands (ev):

   -22.1849 -22.1842 -22.1718 -22.1701 -22.1583 -22.1521 -22.1416 -22.1380
   -22.1328 -22.1291 -13.5791 -13.2350  -8.0269  -7.6938  -4.0183  -3.6717
    -3.0479  -2.8116  -1.8482  -1.4055   0.4991   0.9473   1.6022   1.9013

          k = 0.1333 0.4777 0.0000 ( 30614 PWs)   bands (ev):

   -22.1853 -22.1851 -22.1705 -22.1699 -22.1561 -22.1540 -22.1405 -22.1393
   -22.1313 -22.1301 -13.4399 -13.3217  -8.0067  -7.8923  -3.7417  -3.5598
    -3.1395  -3.0174  -1.7574  -1.5551   0.5675   0.7948   1.9022   1.9990

          k = 0.2000 0.0000 0.0000 ( 30692 PWs)   bands (ev):

   -22.1834 -22.1787 -22.1764 -22.1735 -22.1668 -22.1477 -22.1413 -22.1399
   -22.1315 -22.1293 -14.0643 -13.1944  -7.6353  -6.7750  -4.2282  -3.6601
    -3.4461  -2.5806  -1.9539  -1.6678   0.7716   1.6666   2.2524   2.5033

          k = 0.2000 0.0682 0.0000 ( 30729 PWs)   bands (ev):

   -22.1830 -22.1791 -22.1760 -22.1741 -22.1662 -22.1478 -22.1418 -22.1393
   -22.1320 -22.1291 -14.0456 -13.1894  -7.6428  -6.7986  -4.2087  -4.0207
    -3.0837  -2.8011  -1.7431  -1.6445   0.7938   1.3312   2.3060   2.5672

          k = 0.2000 0.1365 0.0000 ( 30691 PWs)   bands (ev):

   -22.1820 -22.1803 -22.1755 -22.1748 -22.1647 -22.1481 -22.1424 -22.1381
   -22.1331 -22.1287 -13.9905 -13.1767  -7.6689  -6.8734  -4.3987  -4.1531
    -3.1146  -2.7222  -1.5592  -1.5130   0.8532   0.9546   1.8168   2.9341

          k = 0.2000 0.2047 0.0000 ( 30688 PWs)   bands (ev):

   -22.1819 -22.1816 -22.1759 -22.1732 -22.1629 -22.1486 -22.1428 -22.1367
   -22.1344 -22.1284 -13.9027 -13.1623  -7.7200  -7.0056  -4.6567  -4.0700
    -3.3253  -2.5366  -1.5709  -1.4021   0.8820   0.8886   1.3635   3.0580

          k = 0.2000 0.2730 0.0000 ( 30659 PWs)   bands (ev):

   -22.1838 -22.1829 -22.1745 -22.1714 -22.1610 -22.1495 -22.1428 -22.1358
   -22.1352 -22.1283 -13.7885 -13.1558  -7.7927  -7.1905  -4.7617  -3.9658
    -3.4025  -2.5339  -1.8949  -1.2734   0.6828   1.1277   1.3350   2.8510

          k = 0.2000 0.3412 0.0000 ( 30652 PWs)   bands (ev):

   -22.1855 -22.1848 -22.1724 -22.1700 -22.1590 -22.1506 -22.1425 -22.1372
   -22.1337 -22.1285 -13.6570 -13.1684  -7.8648  -7.4044  -4.7117  -3.8369
    -3.4104  -2.6567  -2.2522  -1.3442   0.5916   1.4768   1.5441   2.5292

          k = 0.2000 0.4094 0.0000 ( 30628 PWs)   bands (ev):

   -22.1868 -22.1863 -22.1706 -22.1690 -22.1571 -22.1520 -22.1417 -22.1384
   -22.1322 -22.1290 -13.5203 -13.2099  -7.9022  -7.6115  -4.5289  -3.7324
    -3.4585  -2.8570  -2.3982  -1.6218   0.7614   1.6688   1.8244   2.3262

          k = 0.2000 0.4777 0.0000 ( 30625 PWs)   bands (ev):

   -22.1874 -22.1873 -22.1693 -22.1688 -22.1553 -22.1536 -22.1408 -22.1396
   -22.1308 -22.1297 -13.3919 -13.2853  -7.8766  -7.7770  -4.2486  -3.9264
    -3.3339  -3.0969  -2.2588  -1.9641   1.0766   1.4343   2.1276   2.3476

          k = 0.2667 0.0000 0.0000 ( 30744 PWs)   bands (ev):

   -22.1822 -22.1794 -22.1760 -22.1752 -22.1635 -22.1481 -22.1402 -22.1394
   -22.1322 -22.1306 -13.9515 -13.2100  -7.8528  -7.1222  -4.0849  -3.4645
    -3.1817  -2.4910  -1.7856  -1.5368   0.9225   1.0487   1.7680   2.2059

          k = 0.2667 0.0682 0.0000 ( 30741 PWs)   bands (ev):

   -22.1819 -22.1799 -22.1756 -22.1756 -22.1630 -22.1481 -22.1410 -22.1385
   -22.1328 -22.1301 -13.9336 -13.2042  -7.8425  -7.1263  -4.0657  -3.8727
    -2.8403  -2.7173  -1.7098  -1.4187   0.8283   0.9444   1.8086   2.1051

          k = 0.2667 0.1365 0.0000 ( 30720 PWs)   bands (ev):

   -22.1815 -22.1813 -22.1763 -22.1743 -22.1618 -22.1484 -22.1419 -22.1371
   -22.1340 -22.1295 -13.8813 -13.1886  -7.8157  -7.1436  -4.3581  -4.0124
    -3.1098  -2.5833  -1.4802  -1.4561   0.7839   0.9438   1.3348   2.5836

          k = 0.2667 0.2047 0.0000 ( 30676 PWs)   bands (ev):

   -22.1832 -22.1826 -22.1755 -22.1725 -22.1602 -22.1489 -22.1425 -22.1357
   -22.1353 -22.1289 -13.7985 -13.1692  -7.7838  -7.1863  -4.7482  -3.9421
    -3.4373  -2.5263  -1.8363  -1.2526   0.6973   1.1368   1.3298   2.8636

          k = 0.2667 0.2730 0.0000 ( 30683 PWs)   bands (ev):

   -22.1854 -22.1848 -22.1735 -22.1707 -22.1586 -22.1497 -22.1427 -22.1366
   -22.1343 -22.1287 -13.6918 -13.1550  -7.7609  -7.2661  -4.9917  -3.8945
    -3.6163  -2.5963  -2.3258  -1.3020   0.6478   1.5487   1.6597   2.8375

          k = 0.2667 0.3412 0.0000 ( 30682 PWs)   bands (ev):

   -22.1874 -22.1870 -22.1713 -22.1690 -22.1571 -22.1507 -22.1424 -22.1378
   -22.1328 -22.1286 -13.5706 -13.1568  -7.7516  -7.3814  -5.0613  -3.8655
    -3.7226  -2.7578  -2.6916  -1.6134   0.8817   1.8478   2.1791   2.6444

          k = 0.2667 0.4094 0.0000 ( 30658 PWs)   bands (ev):

   -22.1890 -22.1887 -22.1694 -22.1680 -22.1557 -22.1519 -22.1418 -22.1388
   -22.1315 -22.1288 -13.4469 -13.1845  -7.7415  -7.5117  -4.9602  -4.0074
    -3.7387  -2.9931  -2.7541  -1.9853   1.2190   2.1902   2.2691   2.6872

          k = 0.2667 0.4777 0.0000 ( 30657 PWs)   bands (ev):

   -22.1898 -22.1897 -22.1682 -22.1677 -22.1545 -22.1532 -22.1408 -22.1398
   -22.1303 -22.1294 -13.3340 -13.2439  -7.7054  -7.6274  -4.7176  -4.3767
    -3.5362  -3.2697  -2.5900  -2.3204   1.5797   1.9402   2.5288   2.7688

          k = 0.3333 0.0000 0.0000 ( 30718 PWs)   bands (ev):

   -22.1808 -22.1800 -22.1769 -22.1759 -22.1600 -22.1488 -22.1390 -22.1386
   -22.1330 -22.1320 -13.8190 -13.2480  -8.0158  -7.4551  -3.8913  -3.2311
    -2.9946  -2.4300  -1.8392  -1.1273   0.4830   1.1384   1.3882   1.7397

          k = 0.3333 0.0682 0.0000 ( 30713 PWs)   bands (ev):

   -22.1808 -22.1806 -22.1770 -22.1754 -22.1596 -22.1488 -22.1401 -22.1374
   -22.1339 -22.1313 -13.8024 -13.2409  -7.9946  -7.4453  -3.8751  -3.6611
    -2.7477  -2.6505  -1.6703  -1.1873   0.4881   1.1125   1.3260   1.6947

          k = 0.3333 0.1365 0.0000 ( 30708 PWs)   bands (ev):

   -22.1822 -22.1817 -22.1766 -22.1740 -22.1586 -22.1490 -22.1412 -22.1360
   -22.1351 -22.1304 -13.7540 -13.2213  -7.9339  -7.4197  -4.2109  -3.8316
    -3.0874  -2.6378  -1.5684  -1.3469   0.7214   0.8603   1.3390   2.2009

          k = 0.3333 0.2047 0.0000 ( 30694 PWs)   bands (ev):

   -22.1844 -22.1839 -22.1748 -22.1721 -22.1574 -22.1494 -22.1419 -22.1364
   -22.1346 -22.1296 -13.6780 -13.1948  -7.8427  -7.3894  -4.6975  -3.7862
    -3.5071  -2.6502  -2.1296  -1.2924   0.6196   1.5043   1.5426   2.5437

          k = 0.3333 0.2730 0.0000 ( 30669 PWs)   bands (ev):

   -22.1869 -22.1865 -22.1725 -22.1701 -22.1563 -22.1500 -22.1422 -22.1375
   -22.1332 -22.1291 -13.5813 -13.1699  -7.7374  -7.3704  -5.0623  -3.8840
    -3.7324  -2.7504  -2.6345  -1.5939   0.9011   1.8552   2.2097   2.6471

          k = 0.3333 0.3412 0.0000 ( 30692 PWs)   bands (ev):

   -22.1893 -22.1890 -22.1702 -22.1684 -22.1552 -22.1509 -22.1421 -22.1384
   -22.1319 -22.1288 -13.4738 -13.1572  -7.6398  -7.3771  -5.2618  -4.0843
    -3.9002  -2.9533  -2.8788  -1.9648   1.2705   2.2601   2.5851   2.8810

          k = 0.3333 0.4094 0.0000 ( 30673 PWs)   bands (ev):

   -22.1911 -22.1909 -22.1684 -22.1672 -22.1544 -22.1518 -22.1415 -22.1392
   -22.1307 -22.1288 -13.3673 -13.1669  -7.5654  -7.4110  -5.2712  -4.3990
    -3.9752  -3.2512  -2.8461  -2.2646   1.6132   2.4311   2.6930   3.3392

          k = 0.3333 0.4777 0.0000 ( 30681 PWs)   bands (ev):

   -22.1920 -22.1920 -22.1672 -22.1668 -22.1536 -22.1528 -22.1407 -22.1399
   -22.1298 -22.1291 -13.2744 -13.2057  -7.5101  -7.4596  -5.0997  -4.7877
    -3.8359  -3.5728  -2.6955  -2.4989   1.9231   2.2003   3.0772   3.3419

          k = 0.4000 0.0000 0.0000 ( 30688 PWs)   bands (ev):

   -22.1803 -22.1794 -22.1784 -22.1763 -22.1567 -22.1499 -22.1377 -22.1376
   -22.1341 -22.1334 -13.6771 -13.3154  -8.0945  -7.7402  -3.6603  -2.9964
    -2.9787  -2.4386  -1.7055  -0.8591   0.1188   1.1763   1.2128   1.4223

          k = 0.4000 0.0682 0.0000 ( 30689 PWs)   bands (ev):

   -22.1810 -22.1803 -22.1776 -22.1756 -22.1564 -22.1499 -22.1390 -22.1363
   -22.1351 -22.1325 -13.6621 -13.3065  -8.0681  -7.7211  -3.6496  -3.4183
    -2.8356  -2.6658  -1.4883  -1.0931   0.3373   0.7863   1.4618   1.4630

          k = 0.4000 0.1365 0.0000 ( 30704 PWs)   bands (ev):

   -22.1829 -22.1823 -22.1761 -22.1741 -22.1557 -22.1499 -22.1402 -22.1364
   -22.1349 -22.1314 -13.6187 -13.2816  -7.9906  -7.6662  -3.9835  -3.6275
    -3.1381  -2.8148  -1.6497  -1.2953   0.5302   0.9512   1.5885   1.9683

          k = 0.4000 0.2047 0.0000 ( 30727 PWs)   bands (ev):

   -22.1853 -22.1849 -22.1739 -22.1721 -22.1549 -22.1501 -22.1410 -22.1375
   -22.1335 -22.1304 -13.5513 -13.2459  -7.8679  -7.5835  -4.5259  -3.7159
    -3.5360  -2.8495  -2.2465  -1.5455   0.8056   1.7165   1.8257   2.3303

          k = 0.4000 0.2730 0.0000 ( 30697 PWs)   bands (ev):

   -22.1881 -22.1879 -22.1715 -22.1700 -22.1542 -22.1506 -22.1415 -22.1384
   -22.1322 -22.1297 -13.4673 -13.2077  -7.7127  -7.4869  -4.9763  -4.1173
    -3.6510  -2.9691  -2.6901  -1.9561   1.2536   2.2133   2.3076   2.7192

          k = 0.4000 0.3412 0.0000 ( 30685 PWs)   bands (ev):

   -22.1907 -22.1906 -22.1693 -22.1681 -22.1537 -22.1512 -22.1414 -22.1391
   -22.1311 -22.1292 -13.3767 -13.1773  -7.5479  -7.3955  -5.2888  -4.4782
    -3.8925  -3.2274  -2.8384  -2.2622   1.6264   2.4392   2.7177   3.4226

          k = 0.4000 0.4094 0.0000 ( 30720 PWs)   bands (ev):

   -22.1927 -22.1926 -22.1676 -22.1668 -22.1533 -22.1518 -22.1410 -22.1395
   -22.1301 -22.1289 -13.2912 -13.1651  -7.4080  -7.3291  -5.4233  -4.8107
    -4.0963  -3.5763  -2.7947  -2.4406   1.9208   2.4288   3.1991   3.8162

          k = 0.4000 0.4777 0.0000 ( 30702 PWs)   bands (ev):

   -22.1938 -22.1937 -22.1665 -22.1662 -22.1529 -22.1524 -22.1405 -22.1400
   -22.1294 -22.1290 -13.2225 -13.1793  -7.3241  -7.3017  -5.3603  -5.1303
    -4.0905  -3.8941  -2.6899  -2.5704   2.1566   2.3297   3.5601   3.7842

          k = 0.4667 0.0000 0.0000 ( 30652 PWs)   bands (ev):

   -22.1801 -22.1795 -22.1781 -22.1770 -22.1538 -22.1515 -22.1364 -22.1363
   -22.1352 -22.1349 -13.5378 -13.4137  -8.0738  -7.9525  -3.4095  -3.1684
    -2.7365  -2.5439  -1.3921  -1.0232   0.2615   0.7017   1.1696   1.3627

          k = 0.4667 0.0682 0.0000 ( 30697 PWs)   bands (ev):

   -22.1810 -22.1806 -22.1771 -22.1762 -22.1536 -22.1515 -22.1377 -22.1364
   -22.1350 -22.1337 -13.5247 -13.4028  -8.0465  -7.9276  -3.4134  -3.2633
    -2.9323  -2.7948  -1.2667  -1.1206   0.3188   0.4613   1.5131   1.7116

          k = 0.4667 0.1365 0.0000 ( 30715 PWs)   bands (ev):

   -22.1831 -22.1828 -22.1753 -22.1746 -22.1533 -22.1513 -22.1390 -22.1377
   -22.1337 -22.1325 -13.4872 -13.3717  -7.9658  -7.8548  -3.7145  -3.5128
    -3.2129  -3.0400  -1.5733  -1.4046   0.5971   0.8148   1.8762   2.0123

          k = 0.4667 0.2047 0.0000 ( 30711 PWs)   bands (ev):

   -22.1858 -22.1856 -22.1731 -22.1725 -22.1528 -22.1513 -22.1399 -22.1387
   -22.1324 -22.1314 -13.4300 -13.3254  -7.8364  -7.7393  -4.2660  -3.9651
    -3.3290  -3.0860  -2.1302  -1.8643   1.1305   1.4893   2.1245   2.3333

          k = 0.4667 0.2730 0.0000 ( 30705 PWs)   bands (ev):

   -22.1887 -22.1886 -22.1708 -22.1702 -22.1526 -22.1514 -22.1405 -22.1394
   -22.1313 -22.1304 -13.3608 -13.2719  -7.6684  -7.5921  -4.7590  -4.4515
    -3.4629  -3.2209  -2.5439  -2.2854   1.6197   1.9785   2.5666   2.8148

          k = 0.4667 0.3412 0.0000 ( 30711 PWs)   bands (ev):

   -22.1914 -22.1914 -22.1686 -22.1682 -22.1525 -22.1517 -22.1406 -22.1398
   -22.1303 -22.1297 -13.2897 -13.2215  -7.4811  -7.4317  -5.1437  -4.8571
    -3.7567  -3.5185  -2.6932  -2.4987   1.9410   2.2160   3.1265   3.4140

          k = 0.4667 0.4094 0.0000 ( 30713 PWs)   bands (ev):

   -22.1935 -22.1935 -22.1670 -22.1667 -22.1525 -22.1520 -22.1405 -22.1400
   -22.1296 -22.1292 -13.2281 -13.1850  -7.3094  -7.2876  -5.3857  -5.1645
    -4.0546  -3.8673  -2.6924  -2.5732   2.1631   2.3359   3.5723   3.7967

          k = 0.4667 0.4777 0.0000 ( 30690 PWs)   bands (ev):

   -22.1947 -22.1946 -22.1661 -22.1660 -22.1525 -22.1523 -22.1402 -22.1401
   -22.1291 -22.1290 -13.1864 -13.1717  -7.2033  -7.1989  -5.4597  -5.3727
    -4.1953  -4.1221  -2.6529  -2.6125   2.3077   2.3666   3.8085   3.9342

     the Fermi energy is    -0.7939 ev

!    total energy              =    -413.80386909 Ry
     estimated scf accuracy    <          2.7E-11 Ry
     smearing contrib. (-TS)   =       0.00008827 Ry
     internal energy E=F+TS    =    -413.80395736 Ry

     The total energy is F=E-TS. E is the sum of the following terms:
     one-electron contribution =   -1187.74297184 Ry
     hartree contribution      =     606.07093415 Ry
     xc contribution           =    -154.41605928 Ry
     ewald contribution        =     322.28413962 Ry

     convergence has been achieved in   6 iterations

     negative rho (up, down):  2.792E-05 0.000E+00

     Forces acting on atoms (cartesian axes, Ry/au):

     atom    1 type  1   force =    -0.00055373    0.00000000    0.00030408
     atom    2 type  1   force =    -0.00055308    0.00000000   -0.00031381
     atom    3 type  2   force =     0.00055274    0.00000000    0.00019557
     atom    4 type  2   force =     0.00055408    0.00000000   -0.00018585

     Total force =     0.001220     Total SCF correction =     0.000021

     number of scf cycles    =   2
     number of bfgs steps    =   1

     energy   old            =    -413.8038673938 Ry
     energy   new            =    -413.8038690892 Ry

     CASE: energy  _new < energy  _old


     WARNING: bfgs curvature condition failed, Theta= 0.873
     new trust radius        =       0.0007666365 bohr
     new conv_thr            =            1.7E-12 Ry


ATOMIC_POSITIONS (crystal)
Sn            0.5838405457        0.7500000000        0.1445762557
Sn            0.0838391780        0.2500000000        0.0065691903
Se            0.0302652662        0.2500000000        0.1423322255
Se            0.5302629842        0.7500000000        0.0088123823



     Writing output data file ./wfc-out/pwscf.save/
     NEW-OLD atomic charge density approx. for the potential

     negative rho (up, down):  3.425E-05 0.000E+00

     total cpu time spent up to now is      103.5 secs

     Self-consistent Calculation

     iteration #  1     ecut=    80.00 Ry     beta= 0.70
     Davidson diagonalization with overlap
     ethr =  1.00E-06,  avg # of iterations =  2.0

     Threshold (ethr) on eigenvalues was too large:
     Diagonalizing with lowered threshold

     Davidson diagonalization with overlap
     ethr =  1.29E-10,  avg # of iterations =  6.9

     negative rho (up, down):  2.889E-05 0.000E+00

     total cpu time spent up to now is      115.1 secs

     total energy              =    -413.80387079 Ry
     estimated scf accuracy    <       0.00000008 Ry

     iteration #  2     ecut=    80.00 Ry     beta= 0.70
     Davidson diagonalization with overlap
     ethr =  1.99E-10,  avg # of iterations =  2.0

     negative rho (up, down):  2.812E-05 0.000E+00

     total cpu time spent up to now is      119.6 secs

     total energy              =    -413.80387078 Ry
     estimated scf accuracy    <       0.00000005 Ry

     iteration #  3     ecut=    80.00 Ry     beta= 0.70
     Davidson diagonalization with overlap
     ethr =  1.17E-10,  avg # of iterations =  2.0

     negative rho (up, down):  2.797E-05 0.000E+00

     total cpu time spent up to now is      124.2 secs

     total energy              =    -413.80387080 Ry
     estimated scf accuracy    <          6.9E-09 Ry

     iteration #  4     ecut=    80.00 Ry     beta= 0.70
     Davidson diagonalization with overlap
     ethr =  1.73E-11,  avg # of iterations =  2.7

     negative rho (up, down):  2.793E-05 0.000E+00

     total cpu time spent up to now is      128.7 secs

     total energy              =    -413.80387080 Ry
     estimated scf accuracy    <       0.00000002 Ry

     iteration #  5     ecut=    80.00 Ry     beta= 0.70
     Davidson diagonalization with overlap
     ethr =  1.73E-11,  avg # of iterations =  2.5

     negative rho (up, down):  2.792E-05 0.000E+00

     total cpu time spent up to now is      133.0 secs

     total energy              =    -413.80387080 Ry
     estimated scf accuracy    <          3.1E-10 Ry

     iteration #  6     ecut=    80.00 Ry     beta= 0.70
     Davidson diagonalization with overlap
     ethr =  7.67E-13,  avg # of iterations =  2.7

     negative rho (up, down):  2.792E-05 0.000E+00

     total cpu time spent up to now is      137.5 secs

     total energy              =    -413.80387080 Ry
     estimated scf accuracy    <          3.6E-11 Ry

     iteration #  7     ecut=    80.00 Ry     beta= 0.70
     Davidson diagonalization with overlap
     ethr =  1.00E-13,  avg # of iterations =  2.8

     negative rho (up, down):  2.792E-05 0.000E+00

     total cpu time spent up to now is      142.0 secs

     End of self-consistent calculation

          k = 0.0000 0.0000 0.0000 ( 30755 PWs)   bands (ev):

   -22.1853 -22.1776 -22.1773 -22.1721 -22.1708 -22.1474 -22.1430 -22.1407
   -22.1308 -22.1276 -14.2203 -13.1949  -7.1612  -6.1494  -4.3431  -3.9586
    -3.9257  -2.7427  -2.7213  -1.4875   0.6228   2.4035   2.8728   3.0354

          k = 0.0000 0.0682 0.0000 ( 30741 PWs)   bands (ev):

   -22.1847 -22.1777 -22.1772 -22.1726 -22.1703 -22.1475 -22.1430 -22.1404
   -22.1311 -22.1276 -14.2005 -13.1908  -7.2281  -6.2286  -4.3453  -3.9507
    -3.8507  -2.7477  -2.5990  -1.5011   0.6348   2.4823   2.8504   2.8926

          k = 0.0000 0.1365 0.0000 ( 30745 PWs)   bands (ev):

   -22.1833 -22.1785 -22.1761 -22.1737 -22.1691 -22.1478 -22.1430 -22.1396
   -22.1319 -22.1277 -14.1421 -13.1810  -7.4048  -6.4492  -4.3245  -3.8779
    -3.6898  -2.6960  -2.3410  -1.5469   0.6768   2.3586   2.6271   2.6470

          k = 0.0000 0.2047 0.0000 ( 30715 PWs)   bands (ev):

   -22.1814 -22.1797 -22.1751 -22.1747 -22.1674 -22.1484 -22.1429 -22.1385
   -22.1331 -22.1279 -14.0485 -13.1721  -7.6369  -6.7654  -4.2463  -3.7405
    -3.4772  -2.6104  -2.0034  -1.6314   0.7634   1.7138   2.1649   2.6398

          k = 0.0000 0.2730 0.0000 ( 30683 PWs)   bands (ev):

   -22.1811 -22.1802 -22.1757 -22.1732 -22.1651 -22.1493 -22.1426 -22.1370
   -22.1346 -22.1282 -13.9255 -13.1744  -7.8656  -7.1208  -4.1049  -3.5506
    -3.2462  -2.5177  -1.7415  -1.6295   0.9089   1.0667   1.6847   2.2954

          k = 0.0000 0.3412 0.0000 ( 30675 PWs)   bands (ev):

   -22.1823 -22.1808 -22.1746 -22.1720 -22.1624 -22.1506 -22.1421 -22.1362
   -22.1353 -22.1287 -13.7817 -13.1999  -8.0418  -7.4668  -3.9104  -3.3279
    -3.0524  -2.4545  -1.8158  -1.2607   0.4866   1.1158   1.2966   1.7823

          k = 0.0000 0.4094 0.0000 ( 30623 PWs)   bands (ev):

   -22.1831 -22.1821 -22.1730 -22.1712 -22.1596 -22.1523 -22.1414 -22.1377
   -22.1336 -22.1295 -13.6289 -13.2586  -8.1308  -7.7656  -3.6789  -3.1456
    -2.9432  -2.4640  -1.7403  -1.0184   0.1152   1.0779   1.1601   1.4455

          k = 0.0000 0.4777 0.0000 ( 30566 PWs)   bands (ev):

   -22.1834 -22.1830 -22.1718 -22.1712 -22.1568 -22.1544 -22.1403 -22.1391
   -22.1319 -22.1305 -13.4814 -13.3540  -8.1138  -7.9883  -3.4335  -3.2171
    -2.7610  -2.5723  -1.4795  -1.1499   0.2200   0.6502   1.0703   1.2653

          k = 0.0667 0.0000 0.0000 ( 30731 PWs)   bands (ev):

   -22.1851 -22.1775 -22.1774 -22.1714 -22.1711 -22.1474 -22.1428 -22.1406
   -22.1309 -22.1278 -14.2022 -13.1934  -7.2298  -6.2325  -4.3413  -3.8952
    -3.8883  -2.7222  -2.6128  -1.5067   0.6356   2.4526   2.7440   2.9828

          k = 0.0667 0.0682 0.0000 ( 30730 PWs)   bands (ev):

   -22.1845 -22.1778 -22.1770 -22.1725 -22.1701 -22.1475 -22.1429 -22.1403
   -22.1312 -22.1278 -14.1825 -13.1893  -7.2857  -6.3023  -4.3365  -4.0494
    -3.6626  -2.8243  -2.4129  -1.5174   0.6493   2.4849   2.5213   2.9650

          k = 0.0667 0.1365 0.0000 ( 30724 PWs)   bands (ev):

   -22.1831 -22.1787 -22.1760 -22.1739 -22.1686 -22.1479 -22.1430 -22.1395
   -22.1320 -22.1279 -14.1245 -13.1792  -7.4378  -6.5002  -4.3062  -4.1103
    -3.3969  -2.8626  -2.1104  -1.5531   0.6955   1.9305   2.6215   2.8993

          k = 0.0667 0.2047 0.0000 ( 30719 PWs)   bands (ev):

   -22.1813 -22.1800 -22.1753 -22.1745 -22.1668 -22.1485 -22.1429 -22.1382
   -22.1333 -22.1280 -14.0315 -13.1697  -7.6449  -6.7912  -4.2257  -4.0687
    -3.1295  -2.8169  -1.7963  -1.6159   0.7854   1.3392   2.3712   2.5271

          k = 0.0667 0.2730 0.0000 ( 30705 PWs)   bands (ev):

   -22.1814 -22.1805 -22.1757 -22.1730 -22.1646 -22.1494 -22.1427 -22.1368
   -22.1348 -22.1282 -13.9094 -13.1711  -7.8552  -7.1262  -4.0871  -3.9351
    -2.9044  -2.7246  -1.6826  -1.5247   0.8337   0.9269   1.8365   2.0487

          k = 0.0667 0.3412 0.0000 ( 30663 PWs)   bands (ev):

   -22.1827 -22.1814 -22.1743 -22.1717 -22.1620 -22.1506 -22.1422 -22.1363
   -22.1351 -22.1287 -13.7669 -13.1953  -8.0204  -7.4578  -3.8977  -3.7303
    -2.7930  -2.6424  -1.6837  -1.3517   0.5037   1.0562   1.3653   1.6114

          k = 0.0667 0.4094 0.0000 ( 30626 PWs)   bands (ev):

   -22.1836 -22.1827 -22.1727 -22.1710 -22.1593 -22.1523 -22.1415 -22.1378
   -22.1334 -22.1294 -13.6159 -13.2521  -8.1043  -7.7470  -3.6739  -3.4905
    -2.8375  -2.6472  -1.5658  -1.2916   0.3595   0.7422   1.3586   1.4819

          k = 0.0667 0.4777 0.0000 ( 30603 PWs)   bands (ev):

   -22.1839 -22.1836 -22.1715 -22.1709 -22.1566 -22.1543 -22.1404 -22.1392
   -22.1318 -22.1305 -13.4705 -13.3453  -8.0866  -7.9638  -3.4482  -3.3323
    -2.9036  -2.7758  -1.4017  -1.3034   0.3188   0.4318   1.4159   1.7072

          k = 0.1333 0.0000 0.0000 ( 30701 PWs)   bands (ev):

   -22.1844 -22.1780 -22.1770 -22.1721 -22.1696 -22.1475 -22.1422 -22.1404
   -22.1312 -22.1285 -14.1488 -13.1911  -7.4077  -6.4592  -4.3122  -3.8051
    -3.7006  -2.6641  -2.3313  -1.5667   0.6801   2.2686   2.5444   2.7615

          k = 0.1333 0.0682 0.0000 ( 30716 PWs)   bands (ev):

   -22.1839 -22.1784 -22.1766 -22.1730 -22.1688 -22.1476 -22.1425 -22.1400
   -22.1315 -22.1284 -14.1295 -13.1867  -7.4393  -6.5068  -4.2971  -4.0837
    -3.3789  -2.8487  -2.0943  -1.5671   0.6982   1.9162   2.5527   2.9456

          k = 0.1333 0.1365 0.0000 ( 30717 PWs)   bands (ev):

   -22.1826 -22.1794 -22.1755 -22.1746 -22.1671 -22.1480 -22.1428 -22.1390
   -22.1325 -22.1282 -14.0725 -13.1757  -7.5317  -6.6479  -4.3150  -4.2499
    -3.0382  -3.0249  -1.7688  -1.5661   0.7537   1.3818   2.3514   3.0502

          k = 0.1333 0.2047 0.0000 ( 30706 PWs)   bands (ev):

   -22.1813 -22.1808 -22.1758 -22.1740 -22.1652 -22.1485 -22.1430 -22.1377
   -22.1338 -22.1282 -13.9814 -13.1645  -7.6713  -6.8708  -4.4209  -4.1653
    -3.1129  -2.7469  -1.5537  -1.5500   0.8455   0.9548   1.8297   2.9130

          k = 0.1333 0.2730 0.0000 ( 30684 PWs)   bands (ev):

   -22.1824 -22.1814 -22.1753 -22.1724 -22.1631 -22.1494 -22.1429 -22.1362
   -22.1352 -22.1283 -13.8622 -13.1630  -7.8275  -7.1463  -4.3942  -4.0367
    -3.0871  -2.6139  -1.5568  -1.4907   0.7835   0.9142   1.3557   2.5513

          k = 0.1333 0.3412 0.0000 ( 30653 PWs)   bands (ev):

   -22.1839 -22.1828 -22.1736 -22.1710 -22.1608 -22.1506 -22.1424 -22.1367
   -22.1346 -22.1286 -13.7238 -13.1829  -7.9586  -7.4338  -4.2504  -3.8652
    -3.0267  -2.6517  -1.7312  -1.4058   0.6867   0.8576   1.3548   2.1474

          k = 0.1333 0.4094 0.0000 ( 30611 PWs)   bands (ev):

   -22.1849 -22.1842 -22.1719 -22.1702 -22.1584 -22.1522 -22.1417 -22.1381
   -22.1329 -22.1293 -13.5780 -13.2341  -8.0261  -7.6933  -4.0174  -3.6708
    -3.0473  -2.8108  -1.8482  -1.4052   0.4983   0.9468   1.6017   1.9007

          k = 0.1333 0.4777 0.0000 ( 30614 PWs)   bands (ev):

   -22.1854 -22.1851 -22.1706 -22.1700 -22.1561 -22.1540 -22.1407 -22.1395
   -22.1314 -22.1302 -13.4389 -13.3207  -8.0059  -7.8916  -3.7408  -3.5587
    -3.1388  -3.0167  -1.7574  -1.5549   0.5669   0.7944   1.9016   1.9981

          k = 0.2000 0.0000 0.0000 ( 30692 PWs)   bands (ev):

   -22.1835 -22.1787 -22.1765 -22.1735 -22.1669 -22.1477 -22.1414 -22.1401
   -22.1316 -22.1295 -14.0631 -13.1935  -7.6349  -6.7751  -4.2277  -3.6587
    -3.4456  -2.5795  -1.9540  -1.6676   0.7710   1.6675   2.2522   2.5054

          k = 0.2000 0.0682 0.0000 ( 30729 PWs)   bands (ev):

   -22.1830 -22.1792 -22.1761 -22.1742 -22.1662 -22.1478 -22.1419 -22.1394
   -22.1321 -22.1292 -14.0444 -13.1885  -7.6423  -6.7986  -4.2082  -4.0197
    -3.0828  -2.8003  -1.7429  -1.6442   0.7932   1.3316   2.3072   2.5675

          k = 0.2000 0.1365 0.0000 ( 30691 PWs)   bands (ev):

   -22.1820 -22.1803 -22.1756 -22.1749 -22.1648 -22.1482 -22.1425 -22.1382
   -22.1332 -22.1288 -13.9893 -13.1758  -7.6684  -6.8733  -4.3978  -4.1525
    -3.1140  -2.7213  -1.5590  -1.5126   0.8527   0.9545   1.8169   2.9342

          k = 0.2000 0.2047 0.0000 ( 30688 PWs)   bands (ev):

   -22.1820 -22.1817 -22.1760 -22.1733 -22.1630 -22.1487 -22.1429 -22.1368
   -22.1345 -22.1286 -13.9015 -13.1614  -7.7194  -7.0054  -4.6559  -4.0692
    -3.3249  -2.5357  -1.5704  -1.4019   0.8815   0.8881   1.3630   3.0577

          k = 0.2000 0.2730 0.0000 ( 30659 PWs)   bands (ev):

   -22.1838 -22.1830 -22.1746 -22.1715 -22.1610 -22.1495 -22.1430 -22.1359
   -22.1354 -22.1285 -13.7873 -13.1549  -7.7920  -7.1902  -4.7609  -3.9648
    -3.4022  -2.5330  -1.8946  -1.2731   0.6822   1.1271   1.3344   2.8507

          k = 0.2000 0.3412 0.0000 ( 30652 PWs)   bands (ev):

   -22.1856 -22.1848 -22.1725 -22.1701 -22.1591 -22.1507 -22.1426 -22.1373
   -22.1338 -22.1286 -13.6559 -13.1675  -7.8640  -7.4039  -4.7110  -3.8359
    -3.4100  -2.6558  -2.2521  -1.3440   0.5910   1.4763   1.5435   2.5288

          k = 0.2000 0.4094 0.0000 ( 30628 PWs)   bands (ev):

   -22.1869 -22.1864 -22.1707 -22.1691 -22.1572 -22.1521 -22.1419 -22.1385
   -22.1323 -22.1291 -13.5192 -13.2090  -7.9014  -7.6108  -4.5283  -3.7314
    -3.4578  -2.8561  -2.3986  -1.6218   0.7610   1.6685   1.8238   2.3255

          k = 0.2000 0.4777 0.0000 ( 30625 PWs)   bands (ev):

   -22.1875 -22.1873 -22.1694 -22.1689 -22.1554 -22.1537 -22.1409 -22.1397
   -22.1309 -22.1299 -13.3909 -13.2844  -7.8758  -7.7762  -4.2479  -3.9257
    -3.3330  -3.0959  -2.2592  -1.9644   1.0763   1.4342   2.1271   2.3469

          k = 0.2667 0.0000 0.0000 ( 30744 PWs)   bands (ev):

   -22.1822 -22.1795 -22.1761 -22.1752 -22.1636 -22.1481 -22.1403 -22.1395
   -22.1323 -22.1307 -13.9503 -13.2091  -7.8525  -7.1223  -4.0844  -3.4631
    -3.1811  -2.4897  -1.7853  -1.5368   0.9219   1.0495   1.7677   2.2072

          k = 0.2667 0.0682 0.0000 ( 30741 PWs)   bands (ev):

   -22.1819 -22.1800 -22.1757 -22.1756 -22.1631 -22.1482 -22.1411 -22.1386
   -22.1330 -22.1302 -13.9324 -13.2032  -7.8422  -7.1264  -4.0652  -3.8717
    -2.8394  -2.7163  -1.7095  -1.4185   0.8286   0.9437   1.8090   2.1051

          k = 0.2667 0.1365 0.0000 ( 30720 PWs)   bands (ev):

   -22.1816 -22.1813 -22.1764 -22.1744 -22.1618 -22.1485 -22.1420 -22.1373
   -22.1342 -22.1296 -13.8801 -13.1877  -7.8153  -7.1435  -4.3571  -4.0118
    -3.1089  -2.5824  -1.4798  -1.4558   0.7838   0.9433   1.3346   2.5836

          k = 0.2667 0.2047 0.0000 ( 30676 PWs)   bands (ev):

   -22.1833 -22.1827 -22.1756 -22.1726 -22.1603 -22.1490 -22.1426 -22.1358
   -22.1355 -22.1291 -13.7973 -13.1683  -7.7833  -7.1861  -4.7473  -3.9413
    -3.4366  -2.5255  -1.8362  -1.2522   0.6968   1.1366   1.3293   2.8631

          k = 0.2667 0.2730 0.0000 ( 30683 PWs)   bands (ev):

   -22.1854 -22.1848 -22.1736 -22.1708 -22.1587 -22.1498 -22.1428 -22.1367
   -22.1344 -22.1288 -13.6906 -13.1541  -7.7602  -7.2657  -4.9909  -3.8935
    -3.6158  -2.5955  -2.3259  -1.3019   0.6474   1.5482   1.6593   2.8369

          k = 0.2667 0.3412 0.0000 ( 30682 PWs)   bands (ev):

   -22.1875 -22.1870 -22.1714 -22.1691 -22.1572 -22.1508 -22.1426 -22.1379
   -22.1329 -22.1287 -13.5695 -13.1559  -7.7509  -7.3809  -5.0606  -3.8644
    -3.7220  -2.7569  -2.6920  -1.6136   0.8815   1.8474   2.1788   2.6439

          k = 0.2667 0.4094 0.0000 ( 30658 PWs)   bands (ev):

   -22.1890 -22.1888 -22.1695 -22.1681 -22.1558 -22.1520 -22.1419 -22.1389
   -22.1316 -22.1290 -13.4459 -13.1836  -7.7407  -7.5111  -4.9597  -4.0067
    -3.7377  -2.9921  -2.7547  -1.9857   1.2188   2.1898   2.2690   2.6865

          k = 0.2667 0.4777 0.0000 ( 30657 PWs)   bands (ev):

   -22.1899 -22.1898 -22.1682 -22.1678 -22.1545 -22.1533 -22.1410 -22.1400
   -22.1304 -22.1295 -13.3330 -13.2429  -7.7046  -7.6266  -4.7171  -4.3762
    -3.5352  -3.2687  -2.5905  -2.3209   1.5796   1.9401   2.5284   2.7683

          k = 0.3333 0.0000 0.0000 ( 30718 PWs)   bands (ev):

   -22.1809 -22.1801 -22.1769 -22.1760 -22.1601 -22.1488 -22.1391 -22.1387
   -22.1332 -22.1321 -13.8178 -13.2470  -8.0157  -7.4552  -3.8908  -3.2297
    -2.9939  -2.4286  -1.8388  -1.1272   0.4836   1.1377   1.3877   1.7404

          k = 0.3333 0.0682 0.0000 ( 30713 PWs)   bands (ev):

   -22.1808 -22.1807 -22.1771 -22.1755 -22.1597 -22.1489 -22.1402 -22.1376
   -22.1340 -22.1314 -13.8012 -13.2399  -7.9945  -7.4454  -3.8745  -3.6599
    -2.7468  -2.6492  -1.6699  -1.1872   0.4884   1.1119   1.3260   1.6944

          k = 0.3333 0.1365 0.0000 ( 30708 PWs)   bands (ev):

   -22.1823 -22.1817 -22.1766 -22.1741 -22.1587 -22.1491 -22.1413 -22.1362
   -22.1353 -22.1305 -13.7529 -13.2203  -7.9336  -7.4197  -4.2098  -3.8310
    -3.0862  -2.6370  -1.5685  -1.3464   0.7210   0.8605   1.3385   2.2006

          k = 0.3333 0.2047 0.0000 ( 30694 PWs)   bands (ev):

   -22.1845 -22.1839 -22.1749 -22.1722 -22.1575 -22.1495 -22.1420 -22.1365
   -22.1348 -22.1297 -13.6768 -13.1938  -7.8423  -7.3892  -4.6965  -3.7854
    -3.5060  -2.6494  -2.1299  -1.2922   0.6193   1.5044   1.5422   2.5432

          k = 0.3333 0.2730 0.0000 ( 30669 PWs)   bands (ev):

   -22.1870 -22.1866 -22.1726 -22.1702 -22.1563 -22.1501 -22.1424 -22.1376
   -22.1334 -22.1292 -13.5802 -13.1690  -7.7369  -7.3701  -5.0615  -3.8827
    -3.7318  -2.7496  -2.6350  -1.5941   0.9009   1.8549   2.2096   2.6465

          k = 0.3333 0.3412 0.0000 ( 30692 PWs)   bands (ev):

   -22.1893 -22.1891 -22.1703 -22.1685 -22.1553 -22.1509 -22.1422 -22.1385
   -22.1321 -22.1289 -13.4727 -13.1563  -7.6391  -7.3766  -5.2612  -4.0832
    -3.8996  -2.9524  -2.8793  -1.9653   1.2703   2.2599   2.5847   2.8807

          k = 0.3333 0.4094 0.0000 ( 30673 PWs)   bands (ev):

   -22.1911 -22.1910 -22.1684 -22.1673 -22.1545 -22.1519 -22.1416 -22.1393
   -22.1309 -22.1289 -13.3663 -13.1660  -7.5645  -7.4103  -5.2708  -4.3985
    -3.9744  -3.2503  -2.8466  -2.2651   1.6131   2.4308   2.6929   3.3389

          k = 0.3333 0.4777 0.0000 ( 30681 PWs)   bands (ev):

   -22.1921 -22.1920 -22.1673 -22.1669 -22.1537 -22.1528 -22.1409 -22.1401
   -22.1299 -22.1293 -13.2734 -13.2047  -7.5091  -7.4586  -5.0994  -4.7873
    -3.8351  -3.5720  -2.6959  -2.4993   1.9229   2.2002   3.0771   3.3417

          k = 0.4000 0.0000 0.0000 ( 30688 PWs)   bands (ev):

   -22.1804 -22.1794 -22.1784 -22.1763 -22.1567 -22.1499 -22.1379 -22.1377
   -22.1342 -22.1336 -13.6759 -13.3144  -8.0944  -7.7403  -3.6598  -2.9957
    -2.9772  -2.4371  -1.7050  -0.8586   0.1190   1.1756   1.2131   1.4216

          k = 0.4000 0.0682 0.0000 ( 30689 PWs)   bands (ev):

   -22.1811 -22.1803 -22.1777 -22.1757 -22.1565 -22.1500 -22.1391 -22.1364
   -22.1352 -22.1326 -13.6609 -13.3055  -8.0680  -7.7211  -3.6491  -3.4171
    -2.8347  -2.6643  -1.4877  -1.0930   0.3378   0.7861   1.4612   1.4624

          k = 0.4000 0.1365 0.0000 ( 30704 PWs)   bands (ev):

   -22.1829 -22.1823 -22.1762 -22.1742 -22.1558 -22.1500 -22.1403 -22.1365
   -22.1350 -22.1315 -13.6175 -13.2806  -7.9904  -7.6662  -3.9823  -3.6269
    -3.1365  -2.8141  -1.6500  -1.2950   0.5301   0.9519   1.5879   1.9678

          k = 0.4000 0.2047 0.0000 ( 30727 PWs)   bands (ev):

   -22.1854 -22.1850 -22.1740 -22.1722 -22.1550 -22.1502 -22.1412 -22.1377
   -22.1336 -22.1306 -13.5502 -13.2449  -7.8677  -7.5834  -4.5248  -3.7148
    -3.5350  -2.8487  -2.2471  -1.5456   0.8056   1.7170   1.8254   2.3296

          k = 0.4000 0.2730 0.0000 ( 30697 PWs)   bands (ev):

   -22.1882 -22.1879 -22.1716 -22.1701 -22.1543 -22.1506 -22.1416 -22.1386
   -22.1324 -22.1298 -13.4662 -13.2067  -7.7123  -7.4866  -4.9753  -4.1160
    -3.6503  -2.9682  -2.6908  -1.9565   1.2534   2.2132   2.3074   2.7192

          k = 0.4000 0.3412 0.0000 ( 30685 PWs)   bands (ev):

   -22.1907 -22.1906 -22.1694 -22.1682 -22.1537 -22.1512 -22.1415 -22.1392
   -22.1312 -22.1293 -13.3757 -13.1763  -7.5472  -7.3949  -5.2881  -4.4772
    -3.8920  -3.2266  -2.8388  -2.2626   1.6261   2.4388   2.7179   3.4229

          k = 0.4000 0.4094 0.0000 ( 30720 PWs)   bands (ev):

   -22.1927 -22.1927 -22.1676 -22.1669 -22.1534 -22.1519 -22.1412 -22.1397
   -22.1302 -22.1290 -13.2902 -13.1642  -7.4070  -7.3282  -5.4229  -4.8102
    -4.0958  -3.5756  -2.7950  -2.4409   1.9206   2.4286   3.1993   3.8163

          k = 0.4000 0.4777 0.0000 ( 30702 PWs)   bands (ev):

   -22.1938 -22.1938 -22.1666 -22.1663 -22.1530 -22.1525 -22.1406 -22.1401
   -22.1295 -22.1291 -13.2215 -13.1783  -7.3229  -7.3006  -5.3602  -5.1301
    -4.0899  -3.8935  -2.6902  -2.5707   2.1566   2.3297   3.5602   3.7841

          k = 0.4667 0.0000 0.0000 ( 30652 PWs)   bands (ev):

   -22.1802 -22.1795 -22.1781 -22.1771 -22.1539 -22.1516 -22.1366 -22.1364
   -22.1353 -22.1350 -13.5366 -13.4126  -8.0738  -7.9525  -3.4090  -3.1678
    -2.7348  -2.5423  -1.3915  -1.0224   0.2616   0.7018   1.1689   1.3620

          k = 0.4667 0.0682 0.0000 ( 30697 PWs)   bands (ev):

   -22.1811 -22.1807 -22.1772 -22.1763 -22.1537 -22.1515 -22.1379 -22.1365
   -22.1351 -22.1338 -13.5236 -13.4017  -8.0465  -7.9277  -3.4128  -3.2624
    -2.9311  -2.7932  -1.2662  -1.1204   0.3192   0.4613   1.5125   1.7111

          k = 0.4667 0.1365 0.0000 ( 30715 PWs)   bands (ev):

   -22.1831 -22.1829 -22.1754 -22.1747 -22.1533 -22.1514 -22.1391 -22.1378
   -22.1338 -22.1326 -13.4861 -13.3706  -7.9657  -7.8547  -3.7133  -3.5119
    -3.2117  -3.0392  -1.5736  -1.4046   0.5973   0.8154   1.8757   2.0117

          k = 0.4667 0.2047 0.0000 ( 30711 PWs)   bands (ev):

   -22.1858 -22.1857 -22.1732 -22.1725 -22.1529 -22.1513 -22.1401 -22.1388
   -22.1325 -22.1315 -13.4289 -13.3244  -7.8362  -7.7392  -4.2648  -3.9637
    -3.3282  -3.0852  -2.1308  -1.8647   1.1306   1.4896   2.1243   2.3331

          k = 0.4667 0.2730 0.0000 ( 30705 PWs)   bands (ev):

   -22.1888 -22.1887 -22.1708 -22.1703 -22.1526 -22.1515 -22.1406 -22.1396
   -22.1314 -22.1305 -13.3597 -13.2709  -7.6680  -7.5917  -4.7580  -4.4503
    -3.4621  -3.2201  -2.5445  -2.2860   1.6195   1.9783   2.5668   2.8152

          k = 0.4667 0.3412 0.0000 ( 30711 PWs)   bands (ev):

   -22.1915 -22.1915 -22.1687 -22.1683 -22.1526 -22.1518 -22.1407 -22.1399
   -22.1304 -22.1298 -13.2886 -13.2205  -7.4804  -7.4311  -5.1430  -4.8562
    -3.7562  -3.5179  -2.6936  -2.4991   1.9407   2.2156   3.1268   3.4145

          k = 0.4667 0.4094 0.0000 ( 30713 PWs)   bands (ev):

   -22.1936 -22.1936 -22.1671 -22.1668 -22.1526 -22.1521 -22.1406 -22.1401
   -22.1297 -22.1293 -13.2270 -13.1840  -7.3084  -7.2867  -5.3854  -5.1642
    -4.0541  -3.8668  -2.6926  -2.5735   2.1630   2.3357   3.5727   3.7970

          k = 0.4667 0.4777 0.0000 ( 30690 PWs)   bands (ev):

   -22.1947 -22.1947 -22.1662 -22.1661 -22.1526 -22.1524 -22.1403 -22.1402
   -22.1292 -22.1291 -13.1854 -13.1707  -7.2020  -7.1976  -5.4598  -5.3727
    -4.1947  -4.1216  -2.6530  -2.6127   2.3077   2.3666   3.8084   3.9337

     the Fermi energy is    -0.7931 ev

!    total energy              =    -413.80387080 Ry
     estimated scf accuracy    <          1.0E-12 Ry
     smearing contrib. (-TS)   =       0.00008770 Ry
     internal energy E=F+TS    =    -413.80395851 Ry

     The total energy is F=E-TS. E is the sum of the following terms:
     one-electron contribution =   -1187.66521161 Ry
     hartree contribution      =     606.03225436 Ry
     xc contribution           =    -154.41574408 Ry
     ewald contribution        =     322.24474282 Ry

     convergence has been achieved in   7 iterations

     negative rho (up, down):  2.792E-05 0.000E+00

     Forces acting on atoms (cartesian axes, Ry/au):

[...]

   -22.1870 -22.1804 -22.1799 -22.1749 -22.1724 -22.1496 -22.1457 -22.1431
   -22.1339 -22.1306 -14.1739 -13.1816  -7.2821  -6.3082  -4.3277  -4.0468
    -3.6592  -2.8198  -2.4112  -1.5219   0.6520   2.4941   2.5600   2.9679

          k = 0.0667 0.1365 0.0000 ( 30724 PWs)   bands (ev):

   -22.1856 -22.1812 -22.1789 -22.1763 -22.1709 -22.1499 -22.1458 -22.1423
   -22.1348 -22.1306 -14.1160 -13.1717  -7.4332  -6.5041  -4.2974  -4.1078
    -3.3927  -2.8601  -2.1065  -1.5577   0.6982   1.9284   2.6518   2.9064

          k = 0.0667 0.2047 0.0000 ( 30719 PWs)   bands (ev):

   -22.1837 -22.1825 -22.1779 -22.1774 -22.1690 -22.1505 -22.1458 -22.1411
   -22.1360 -22.1307 -14.0233 -13.1626  -7.6390  -6.7925  -4.2173  -4.0659
    -3.1244  -2.8145  -1.7907  -1.6204   0.7882   1.3303   2.3741   2.5259

          k = 0.0667 0.2730 0.0000 ( 30705 PWs)   bands (ev):

   -22.1838 -22.1827 -22.1785 -22.1759 -22.1667 -22.1514 -22.1455 -22.1396
   -22.1375 -22.1310 -13.9015 -13.1644  -7.8481  -7.1249  -4.0792  -3.9315
    -2.8982  -2.7206  -1.6864  -1.5173   0.8199   0.9296   1.8267   2.0407

          k = 0.0667 0.3412 0.0000 ( 30663 PWs)   bands (ev):

   -22.1851 -22.1836 -22.1772 -22.1746 -22.1640 -22.1526 -22.1450 -22.1390
   -22.1380 -22.1315 -13.7595 -13.1888  -8.0125  -7.4541  -3.8903  -3.7253
    -2.7869  -2.6358  -1.6851  -1.3440   0.4875   1.0551   1.3537   1.5976

          k = 0.0667 0.4094 0.0000 ( 30626 PWs)   bands (ev):

   -22.1859 -22.1849 -22.1756 -22.1739 -22.1613 -22.1543 -22.1442 -22.1405
   -22.1363 -22.1323 -13.6089 -13.2458  -8.0961  -7.7414  -3.6668  -3.4833
    -2.8329  -2.6383  -1.5634  -1.2855   0.3442   0.7271   1.3400   1.4807

          k = 0.0667 0.4777 0.0000 ( 30603 PWs)   bands (ev):

   -22.1862 -22.1859 -22.1744 -22.1738 -22.1586 -22.1563 -22.1432 -22.1419
   -22.1347 -22.1333 -13.4639 -13.3390  -8.0787  -7.9568  -3.4407  -3.3234
    -2.8992  -2.7679  -1.3964  -1.2976   0.3024   0.4141   1.3969   1.6940

          k = 0.1333 0.0000 0.0000 ( 30701 PWs)   bands (ev):

   -22.1869 -22.1805 -22.1799 -22.1745 -22.1719 -22.1496 -22.1451 -22.1432
   -22.1339 -22.1312 -14.1400 -13.1831  -7.4060  -6.4654  -4.3058  -3.7922
    -3.7053  -2.6497  -2.3366  -1.5703   0.6816   2.2855   2.5842   2.7549

          k = 0.1333 0.0682 0.0000 ( 30716 PWs)   bands (ev):

   -22.1864 -22.1809 -22.1794 -22.1754 -22.1710 -22.1497 -22.1453 -22.1428
   -22.1343 -22.1311 -14.1207 -13.1787  -7.4371  -6.5124  -4.2902  -4.0790
    -3.3754  -2.8408  -2.0931  -1.5707   0.6997   1.9204   2.5897   2.9494

          k = 0.1333 0.1365 0.0000 ( 30717 PWs)   bands (ev):

   -22.1851 -22.1819 -22.1784 -22.1771 -22.1694 -22.1500 -22.1457 -22.1418
   -22.1352 -22.1310 -14.0639 -13.1680  -7.5282  -6.6518  -4.3114  -4.2422
    -3.0335  -3.0200  -1.7643  -1.5698   0.7555   1.3766   2.3647   3.0565

          k = 0.1333 0.2047 0.0000 ( 30706 PWs)   bands (ev):

   -22.1836 -22.1833 -22.1785 -22.1768 -22.1674 -22.1506 -22.1458 -22.1405
   -22.1365 -22.1310 -13.9731 -13.1571  -7.6662  -6.8723  -4.4180  -4.1568
    -3.1101  -2.7409  -1.5530  -1.5468   0.8476   0.9426   1.8242   2.9164

          k = 0.1333 0.2730 0.0000 ( 30684 PWs)   bands (ev):

   -22.1848 -22.1836 -22.1782 -22.1752 -22.1652 -22.1515 -22.1457 -22.1390
   -22.1380 -22.1311 -13.8543 -13.1561  -7.8207  -7.1450  -4.3917  -4.0280
    -3.0846  -2.6076  -1.5499  -1.4911   0.7678   0.9140   1.3446   2.5493

          k = 0.1333 0.3412 0.0000 ( 30653 PWs)   bands (ev):

   -22.1862 -22.1850 -22.1765 -22.1739 -22.1628 -22.1527 -22.1453 -22.1394
   -22.1374 -22.1315 -13.7163 -13.1764  -7.9506  -7.4300  -4.2478  -3.8567
    -3.0229  -2.6461  -1.7280  -1.4023   0.6738   0.8430   1.3514   2.1411

          k = 0.1333 0.4094 0.0000 ( 30611 PWs)   bands (ev):

   -22.1873 -22.1865 -22.1747 -22.1731 -22.1604 -22.1542 -22.1445 -22.1409
   -22.1358 -22.1321 -13.5710 -13.2277  -8.0176  -7.6873  -4.0139  -3.6626
    -3.0419  -2.8057  -1.8487  -1.3999   0.4819   0.9354   1.5998   1.8900

          k = 0.1333 0.4777 0.0000 ( 30614 PWs)   bands (ev):

   -22.1877 -22.1874 -22.1735 -22.1729 -22.1581 -22.1560 -22.1434 -22.1422
   -22.1343 -22.1331 -13.4323 -13.3143  -7.9976  -7.8842  -3.7356  -3.5510
    -3.1342  -3.0118  -1.7575  -1.5519   0.5525   0.7831   1.8993   1.9879

          k = 0.2000 0.0000 0.0000 ( 30692 PWs)   bands (ev):

   -22.1859 -22.1812 -22.1793 -22.1760 -22.1692 -22.1498 -22.1442 -22.1429
   -22.1344 -22.1322 -14.0542 -13.1851  -7.6349  -6.7809  -4.2232  -3.6452
    -3.4482  -2.5637  -1.9569  -1.6697   0.7711   1.6795   2.2430   2.5387

          k = 0.2000 0.0682 0.0000 ( 30729 PWs)   bands (ev):

   -22.1855 -22.1817 -22.1789 -22.1767 -22.1685 -22.1499 -22.1447 -22.1422
   -22.1349 -22.1320 -14.0355 -13.1803  -7.6419  -6.8040  -4.2032  -4.0130
    -3.0786  -2.7889  -1.7413  -1.6464   0.7933   1.3328   2.3259   2.5674

          k = 0.2000 0.1365 0.0000 ( 30691 PWs)   bands (ev):

   -22.1844 -22.1828 -22.1781 -22.1777 -22.1670 -22.1502 -22.1454 -22.1410
   -22.1360 -22.1316 -13.9806 -13.1678  -7.6666  -6.8773  -4.3928  -4.1463
    -3.1061  -2.7158  -1.5606  -1.5080   0.8530   0.9475   1.8179   2.9373

          k = 0.2000 0.2047 0.0000 ( 30688 PWs)   bands (ev):

   -22.1844 -22.1839 -22.1788 -22.1761 -22.1651 -22.1508 -22.1458 -22.1396
   -22.1373 -22.1313 -13.8931 -13.1538  -7.7155  -7.0072  -4.6523  -4.0608
    -3.3201  -2.5301  -1.5659  -1.4013   0.8766   0.8807   1.3559   3.0610

          k = 0.2000 0.2730 0.0000 ( 30659 PWs)   bands (ev):

   -22.1862 -22.1852 -22.1774 -22.1744 -22.1632 -22.1516 -22.1458 -22.1387
   -22.1382 -22.1313 -13.7793 -13.1477  -7.7858  -7.1891  -4.7588  -3.9545
    -3.4000  -2.5278  -1.8934  -1.2696   0.6730   1.1148   1.3300   2.8528

          k = 0.2000 0.3412 0.0000 ( 30652 PWs)   bands (ev):

   -22.1879 -22.1871 -22.1753 -22.1729 -22.1612 -22.1527 -22.1455 -22.1400
   -22.1366 -22.1314 -13.6484 -13.1607  -7.8559  -7.3999  -4.7099  -3.8252
    -3.4077  -2.6503  -2.2555  -1.3408   0.5797   1.4650   1.5401   2.5292

          k = 0.2000 0.4094 0.0000 ( 30628 PWs)   bands (ev):

   -22.1892 -22.1887 -22.1735 -22.1720 -22.1592 -22.1541 -22.1447 -22.1413
   -22.1351 -22.1319 -13.5122 -13.2025  -7.8922  -7.6043  -4.5274  -3.7236
    -3.4522  -2.8497  -2.4051  -1.6221   0.7523   1.6615   1.8203   2.3215

          k = 0.2000 0.4777 0.0000 ( 30625 PWs)   bands (ev):

   -22.1898 -22.1896 -22.1723 -22.1717 -22.1574 -22.1557 -22.1437 -22.1425
   -22.1338 -22.1327 -13.3842 -13.2779  -7.8666  -7.7679  -4.2464  -3.9226
    -3.3248  -3.0885  -2.2652  -1.9680   1.0705   1.4298   2.1229   2.3416

          k = 0.2667 0.0000 0.0000 ( 30744 PWs)   bands (ev):

   -22.1847 -22.1820 -22.1789 -22.1777 -22.1659 -22.1503 -22.1431 -22.1423
   -22.1351 -22.1334 -13.9412 -13.2003  -7.8542  -7.1279  -4.0811  -3.4485
    -3.1819  -2.4721  -1.7858  -1.5372   0.9203   1.0580   1.7557   2.2284

          k = 0.2667 0.0682 0.0000 ( 30741 PWs)   bands (ev):

   -22.1844 -22.1825 -22.1784 -22.1782 -22.1654 -22.1503 -22.1440 -22.1414
   -22.1357 -22.1330 -13.9234 -13.1946  -7.8435  -7.1316  -4.0616  -3.8631
    -2.8346  -2.7011  -1.7095  -1.4168   0.8288   0.9421   1.8147   2.1007

          k = 0.2667 0.1365 0.0000 ( 30720 PWs)   bands (ev):

   -22.1839 -22.1838 -22.1791 -22.1771 -22.1641 -22.1506 -22.1449 -22.1400
   -22.1369 -22.1323 -13.8713 -13.1793  -7.8152  -7.1476  -4.3503  -4.0071
    -3.0964  -2.5776  -1.4780  -1.4544   0.7788   0.9404   1.3329   2.5830

          k = 0.2667 0.2047 0.0000 ( 30676 PWs)   bands (ev):

   -22.1857 -22.1849 -22.1783 -22.1754 -22.1625 -22.1511 -22.1455 -22.1386
   -22.1382 -22.1318 -13.7888 -13.1603  -7.7810  -7.1882  -4.7423  -3.9337
    -3.4278  -2.5210  -1.8381  -1.2485   0.6892   1.1297   1.3268   2.8625

          k = 0.2667 0.2730 0.0000 ( 30683 PWs)   bands (ev):

   -22.1879 -22.1871 -22.1763 -22.1735 -22.1608 -22.1519 -22.1457 -22.1395
   -22.1372 -22.1315 -13.6825 -13.1466  -7.7550  -7.2649  -4.9882  -3.8807
    -3.6125  -2.5905  -2.3319  -1.2999   0.6399   1.5450   1.6512   2.8380

          k = 0.2667 0.3412 0.0000 ( 30682 PWs)   bands (ev):

   -22.1899 -22.1893 -22.1741 -22.1719 -22.1593 -22.1529 -22.1454 -22.1406
   -22.1357 -22.1315 -13.5619 -13.1488  -7.7427  -7.3766  -5.0602  -3.8510
    -3.7195  -2.7505  -2.7019  -1.6160   0.8778   1.8429   2.1705   2.6463

          k = 0.2667 0.4094 0.0000 ( 30658 PWs)   bands (ev):

   -22.1914 -22.1911 -22.1722 -22.1709 -22.1579 -22.1541 -22.1447 -22.1417
   -22.1344 -22.1318 -13.4387 -13.1768  -7.7306  -7.5037  -4.9609  -4.0059
    -3.7254  -2.9840  -2.7653  -1.9917   1.2187   2.1841   2.2719   2.6784

          k = 0.2667 0.4777 0.0000 ( 30657 PWs)   bands (ev):

   -22.1922 -22.1921 -22.1710 -22.1705 -22.1566 -22.1554 -22.1437 -22.1427
   -22.1332 -22.1323 -13.3261 -13.2363  -7.6940  -7.6169  -4.7188  -4.3772
    -3.5244  -3.2592  -2.6000  -2.3292   1.5820   1.9438   2.5215   2.7602

          k = 0.3333 0.0000 0.0000 ( 30718 PWs)   bands (ev):

   -22.1833 -22.1826 -22.1794 -22.1787 -22.1624 -22.1510 -22.1419 -22.1415
   -22.1359 -22.1348 -13.8085 -13.2379  -8.0187  -7.4607  -3.8884  -3.2137
    -2.9937  -2.4088  -1.8372  -1.1244   0.4887   1.1346   1.3730   1.7530

          k = 0.3333 0.0682 0.0000 ( 30713 PWs)   bands (ev):

   -22.1832 -22.1832 -22.1796 -22.1782 -22.1620 -22.1511 -22.1430 -22.1403
   -22.1368 -22.1341 -13.7920 -13.2308  -7.9971  -7.4506  -3.8720  -3.6498
    -2.7422  -2.6302  -1.6669  -1.1866   0.4905   1.1070   1.3284   1.6849

          k = 0.3333 0.1365 0.0000 ( 30708 PWs)   bands (ev):

   -22.1848 -22.1840 -22.1793 -22.1768 -22.1610 -22.1512 -22.1441 -22.1389
   -22.1380 -22.1332 -13.7439 -13.2116  -7.9351  -7.4239  -4.2011  -3.8277
    -3.0682  -2.6330  -1.5732  -1.3419   0.7146   0.8615   1.3378   2.1958

          k = 0.3333 0.2047 0.0000 ( 30694 PWs)   bands (ev):

   -22.1870 -22.1862 -22.1775 -22.1750 -22.1598 -22.1516 -22.1449 -22.1393
   -22.1375 -22.1325 -13.6682 -13.1855  -7.8416  -7.3915  -4.6897  -3.7793
    -3.4909  -2.6452  -2.1390  -1.2900   0.6133   1.5037   1.5406   2.5407

          k = 0.3333 0.2730 0.0000 ( 30669 PWs)   bands (ev):

   -22.1894 -22.1889 -22.1752 -22.1730 -22.1585 -22.1523 -22.1452 -22.1404
   -22.1361 -22.1320 -13.5720 -13.1612  -7.7329  -7.3694  -5.0575  -3.8641
    -3.7300  -2.7442  -2.6475  -1.5968   0.8987   1.8521   2.2067   2.6462

          k = 0.3333 0.3412 0.0000 ( 30692 PWs)   bands (ev):

   -22.1917 -22.1914 -22.1729 -22.1712 -22.1575 -22.1531 -22.1450 -22.1413
   -22.1348 -22.1317 -13.4650 -13.1490  -7.6312  -7.3720  -5.2608  -4.0707
    -3.8968  -2.9453  -2.8913  -1.9719   1.2723   2.2556   2.5888   2.8741

          k = 0.3333 0.4094 0.0000 ( 30673 PWs)   bands (ev):

   -22.1935 -22.1933 -22.1711 -22.1700 -22.1567 -22.1541 -22.1444 -22.1420
   -22.1337 -22.1317 -13.3590 -13.1590  -7.5532  -7.4017  -5.2739  -4.3997
    -3.9645  -3.2422  -2.8562  -2.2734   1.6183   2.4376   2.6875   3.3310

          k = 0.3333 0.4777 0.0000 ( 30681 PWs)   bands (ev):

   -22.1944 -22.1944 -22.1699 -22.1696 -22.1559 -22.1551 -22.1436 -22.1428
   -22.1327 -22.1321 -13.2665 -13.1979  -7.4964  -7.4471  -5.1044  -4.7921
    -3.8256  -3.5634  -2.7046  -2.5078   1.9304   2.2083   3.0710   3.3344

          k = 0.4000 0.0000 0.0000 ( 30688 PWs)   bands (ev):

   -22.1829 -22.1819 -22.1809 -22.1790 -22.1591 -22.1522 -22.1406 -22.1405
   -22.1369 -22.1363 -13.6664 -13.3049  -8.0985  -7.7457  -3.6580  -2.9952
    -2.9594  -2.4160  -1.7011  -0.8510   0.1194   1.1589   1.2184   1.4195

          k = 0.4000 0.0682 0.0000 ( 30689 PWs)   bands (ev):

   -22.1836 -22.1827 -22.1803 -22.1784 -22.1588 -22.1522 -22.1419 -22.1391
   -22.1380 -22.1353 -13.6516 -13.2962  -8.0718  -7.7263  -3.6473  -3.4062
    -2.8292  -2.6429  -1.4826  -1.0938   0.3432   0.7827   1.4486   1.4598

          k = 0.4000 0.1365 0.0000 ( 30704 PWs)   bands (ev):

   -22.1854 -22.1847 -22.1787 -22.1769 -22.1581 -22.1522 -22.1431 -22.1393
   -22.1377 -22.1342 -13.6084 -13.2715  -7.9931  -7.6704  -3.9717  -3.6249
    -3.1150  -2.8099  -1.6587  -1.2918   0.5256   0.9596   1.5869   1.9588

          k = 0.4000 0.2047 0.0000 ( 30727 PWs)   bands (ev):

   -22.1879 -22.1874 -22.1766 -22.1749 -22.1573 -22.1525 -22.1440 -22.1404
   -22.1364 -22.1333 -13.5414 -13.2363  -7.8683  -7.5857  -4.5158  -3.7032
    -3.5232  -2.8442  -2.2598  -1.5479   0.8040   1.7236   1.8246   2.3254

          k = 0.4000 0.2730 0.0000 ( 30697 PWs)   bands (ev):

   -22.1906 -22.1903 -22.1742 -22.1727 -22.1565 -22.1529 -22.1444 -22.1413
   -22.1351 -22.1326 -13.4579 -13.1986  -7.7097  -7.4859  -4.9693  -4.1005
    -3.6459  -2.9624  -2.7044  -1.9630   1.2546   2.2121   2.3101   2.7201

          k = 0.4000 0.3412 0.0000 ( 30685 PWs)   bands (ev):

   -22.1931 -22.1930 -22.1720 -22.1708 -22.1560 -22.1535 -22.1444 -22.1419
   -22.1340 -22.1321 -13.3679 -13.1688  -7.5400  -7.3900  -5.2868  -4.4686
    -3.8887  -3.2200  -2.8491  -2.2709   1.6305   2.4433   2.7161   3.4241

          k = 0.4000 0.4094 0.0000 ( 30720 PWs)   bands (ev):

   -22.1951 -22.1950 -22.1702 -22.1695 -22.1557 -22.1542 -22.1439 -22.1424
   -22.1330 -22.1318 -13.2829 -13.1570  -7.3947  -7.3183  -5.4274  -4.8124
    -4.0893  -3.5692  -2.8030  -2.4490   1.9286   2.4370   3.1976   3.8141

          k = 0.4000 0.4777 0.0000 ( 30702 PWs)   bands (ev):

   -22.1962 -22.1961 -22.1692 -22.1689 -22.1553 -22.1549 -22.1434 -22.1428
   -22.1323 -22.1319 -13.2145 -13.1713  -7.3076  -7.2864  -5.3689  -5.1386
    -4.0821  -3.8865  -2.6976  -2.5782   2.1673   2.3407   3.5579   3.7799

          k = 0.4667 0.0000 0.0000 ( 30652 PWs)   bands (ev):

   -22.1827 -22.1821 -22.1806 -22.1796 -22.1562 -22.1539 -22.1393 -22.1392
   -22.1381 -22.1378 -13.5270 -13.4030  -8.0787  -7.9578  -3.4077  -3.1669
    -2.7152  -2.5213  -1.3853  -1.0141   0.2616   0.7048   1.1518   1.3459

          k = 0.4667 0.0682 0.0000 ( 30697 PWs)   bands (ev):

   -22.1836 -22.1832 -22.1797 -22.1789 -22.1560 -22.1538 -22.1406 -22.1393
   -22.1379 -22.1366 -13.5141 -13.3922  -8.0510  -7.9326  -3.4114  -3.2576
    -2.9168  -2.7725  -1.2614  -1.1189   0.3221   0.4595   1.5002   1.7090

          k = 0.4667 0.1365 0.0000 ( 30715 PWs)   bands (ev):

   -22.1856 -22.1853 -22.1780 -22.1773 -22.1556 -22.1537 -22.1419 -22.1406
   -22.1365 -22.1353 -13.4769 -13.3614  -7.9692  -7.8587  -3.7013  -3.5054
    -3.1966  -3.0333  -1.5804  -1.4063   0.5981   0.8218   1.8753   2.0085

          k = 0.4667 0.2047 0.0000 ( 30711 PWs)   bands (ev):

   -22.1883 -22.1881 -22.1758 -22.1752 -22.1552 -22.1536 -22.1429 -22.1416
   -22.1353 -22.1342 -13.4201 -13.3156  -7.8378  -7.7413  -4.2534  -3.9498
    -3.3216  -3.0800  -2.1414  -1.8714   1.1326   1.4944   2.1252   2.3352

          k = 0.4667 0.2730 0.0000 ( 30705 PWs)   bands (ev):

   -22.1912 -22.1911 -22.1734 -22.1729 -22.1549 -22.1538 -22.1434 -22.1423
   -22.1342 -22.1333 -13.3514 -13.2626  -7.6665  -7.5908  -4.7495  -4.4387
    -3.4568  -3.2143  -2.5559  -2.2951   1.6219   1.9808   2.5687   2.8205

          k = 0.4667 0.3412 0.0000 ( 30711 PWs)   bands (ev):

   -22.1939 -22.1938 -22.1713 -22.1709 -22.1549 -22.1541 -22.1435 -22.1427
   -22.1332 -22.1326 -13.2808 -13.2127  -7.4741  -7.4257  -5.1399  -4.8507
    -3.7523  -3.5127  -2.7025  -2.5076   1.9457   2.2206   3.1287   3.4189

          k = 0.4667 0.4094 0.0000 ( 30713 PWs)   bands (ev):

   -22.1960 -22.1959 -22.1697 -22.1694 -22.1549 -22.1545 -22.1433 -22.1428
   -22.1325 -22.1321 -13.2197 -13.1767  -7.2960  -7.2752  -5.3900  -5.1677
    -4.0490  -3.8616  -2.6999  -2.5809   2.1723   2.3452   3.5746   3.7984

          k = 0.4667 0.4777 0.0000 ( 30690 PWs)   bands (ev):

   -22.1971 -22.1971 -22.1688 -22.1687 -22.1550 -22.1548 -22.1431 -22.1429
   -22.1320 -22.1319 -13.1784 -13.1636  -7.1847  -7.1809  -5.4712  -5.3840
    -4.1879  -4.1151  -2.6599  -2.6196   2.3208   2.3798   3.8042   3.9237

     the Fermi energy is    -0.7794 ev

!    total energy              =    -413.80388370 Ry
     estimated scf accuracy    <          6.2E-13 Ry
     smearing contrib. (-TS)   =       0.00007774 Ry
     internal energy E=F+TS    =    -413.80396144 Ry

     The total energy is F=E-TS. E is the sum of the following terms:
     one-electron contribution =   -1187.64117545 Ry
     hartree contribution      =     606.01981431 Ry
     xc contribution           =    -154.41326394 Ry
     ewald contribution        =     322.23066363 Ry

     convergence has been achieved in   7 iterations

     negative rho (up, down):  2.806E-05 0.000E+00

     Forces acting on atoms (cartesian axes, Ry/au):

     atom    1 type  1   force =    -0.00001907    0.00000000    0.00001684
     atom    2 type  1   force =    -0.00001928    0.00000000   -0.00001292
     atom    3 type  2   force =     0.00001905    0.00000000    0.00001967
     atom    4 type  2   force =     0.00001931    0.00000000   -0.00002359

     Total force =     0.000054     Total SCF correction =     0.000003

     bfgs converged in  17 scf cycles and  16 bfgs steps
     (criteria: energy <  1.0E-06 Ry, force <  3.8E-05 Ry/Bohr)

     End of BFGS Geometry Optimization

     Final energy   =    -413.8038837025 Ry

     File ./wfc-out/pwscf.bfgs deleted, as requested
Begin final coordinates

ATOMIC_POSITIONS (crystal)
Sn            0.5823674105        0.7500000000        0.1445314482
Sn            0.0823675186        0.2500000000        0.0066132315
Se            0.0317368350        0.2500000000        0.1424096997
Se            0.5317362099        0.7500000000        0.0087356745
End final coordinates



     Writing output data file ./wfc-out/pwscf.save/
 
     init_run     :      2.03s CPU      2.41s WALL (       1 calls)
     electrons    :    627.16s CPU    731.52s WALL (      17 calls)
     update_pot   :      6.79s CPU      7.28s WALL (      16 calls)
     forces       :     14.48s CPU     18.84s WALL (      17 calls)

     Called by init_run:
     wfcinit      :      1.24s CPU      1.39s WALL (       1 calls)
     potinit      :      0.15s CPU      0.16s WALL (       1 calls)
     hinit0       :      0.30s CPU      0.35s WALL (       1 calls)

     Called by electrons:
     c_bands      :    502.51s CPU    526.33s WALL (     146 calls)
     sum_band     :    102.34s CPU    132.10s WALL (     146 calls)
     v_of_rho     :      5.64s CPU      6.31s WALL (     147 calls)
     newd         :     16.95s CPU     44.45s WALL (     147 calls)
     mix_rho      :      0.65s CPU      0.88s WALL (     146 calls)

     Called by c_bands:
     init_us_2    :     12.37s CPU     13.58s WALL (   19840 calls)
     cegterg      :    440.67s CPU    459.44s WALL (    9344 calls)

     Called by *egterg:
     cdiaghg      :     26.15s CPU     26.91s WALL (   34851 calls)
     h_psi        :    332.46s CPU    348.18s WALL (   36963 calls)
     s_psi        :     15.79s CPU     16.33s WALL (   36963 calls)
     g_psi        :      1.69s CPU      1.74s WALL (   27555 calls)

     Called by h_psi:
     h_psi:calbec :     24.17s CPU     25.20s WALL (   36963 calls)
     vloc_psi     :    284.76s CPU    298.73s WALL (   36963 calls)
     add_vuspsi   :     20.27s CPU     20.92s WALL (   36963 calls)

     General routines
     calbec       :     33.89s CPU     35.51s WALL (   50659 calls)
     fft          :      4.89s CPU      5.41s WALL (    2096 calls)
     ffts         :      0.16s CPU      0.17s WALL (     293 calls)
     fftw         :    309.64s CPU    324.64s WALL ( 1405556 calls)
     interpolate  :      0.38s CPU      0.39s WALL (     147 calls)
 
     Parallel routines
     fft_scatt_xy :     44.31s CPU     46.55s WALL ( 1407945 calls)
     fft_scatt_yz :    177.40s CPU    186.06s WALL ( 1407945 calls)
 
     PWSCF        :  10m54.65s CPU  13m38.60s WALL

 
   This run was terminated on:   6:37:30   8May2023            

=------------------------------------------------------------------------------=
   JOB DONE.
=------------------------------------------------------------------------------=
