 running on  192 total cores
 distrk:  each k-point on  192 cores,    1 groups
 distr:  one band on   24 cores,    8 groups
 using from now: INCAR     
 vasp.5.4.4.18Apr17-6-g9f103f2a35 (build Oct 01 2024 10:11:53) complex          
  
 POSCAR found type information on POSCAR  S  Se Sn Pb
 POSCAR found :  4 types and      20 ions
 scaLAPACK will be used

 ----------------------------------------------------------------------------- 
|                                                                             |
|  ADVICE TO THIS USER RUNNING 'VASP/VAMP'   (HEAR YOUR MASTER'S VOICE ...):  |
|                                                                             |
|      You have a (more or less) 'large supercell' and for larger cells       |
|      it might be more efficient to use real space projection opertators     |
|      So try LREAL= Auto  in the INCAR   file.                               |
|      Mind:          For very  accurate calculation you might also keep the  |
|      reciprocal projection scheme          (i.e. LREAL=.FALSE.)             |
|                                                                             |
 ----------------------------------------------------------------------------- 

 WARNING: PSMAXN for non-local potential too small
 WARNING: PSMAXN for non-local potential too small
 LDA part: xc-table for Pade appr. of Perdew
 WARNING: stress and forces are not correct
 POSCAR, INCAR and KPOINTS ok, starting setup
 FFT: planning ...
 WAVECAR not read
 charge-density read from file: SnSe                                    
 WARNING: random wavefunctions but no delay for mixing, default for NELMDL
 entering main loop
       N       E                     dE             d eps       ncg     rms          rms(c)
DAV:   1     0.694225565828E+03    0.69423E+03   -0.34864E+04  5128   0.130E+03
DAV:   2     0.389614912988E+02   -0.65526E+03   -0.62826E+03  7248   0.191E+02
DAV:   3    -0.771373712271E+02   -0.11610E+03   -0.11356E+03  6160   0.850E+01
DAV:   4    -0.846589883623E+02   -0.75216E+01   -0.74617E+01  7344   0.228E+01
DAV:   5    -0.848273088172E+02   -0.16832E+00   -0.16794E+00  6616   0.370E+00
DAV:   6    -0.848339803268E+02   -0.66715E-02   -0.66671E-02  7648   0.709E-01
DAV:   7    -0.848341759985E+02   -0.19567E-03   -0.19560E-03  6632   0.119E-01
DAV:   8    -0.848341865696E+02   -0.10571E-04   -0.10570E-04  6928   0.252E-02
DAV:   9    -0.848341870995E+02   -0.52987E-06   -0.52986E-06  5240   0.541E-03
   1 F= -.88219500E+02 E0= -.88219500E+02  d E =0.000000E+00
