ITEM: TIMESTEP
0
ITEM: NUMBER OF ATOMS
8
ITEM: BOX BOUNDS pp pp pp
0.0000000000000000e+00 5.4687275887000002e+00
0.0000000000000000e+00 5.4687275887000002e+00
0.0000000000000000e+00 5.4687275887000002e+00
ITEM: ATOMS id type xs ys zs
1 1 0.5 0.5 0
2 1 0.5 0 0.5
3 1 0 0.5 0.5
4 1 0 0 0
5 1 0.25 0.25 0.75
6 1 0.25 0.75 0.25
7 1 0.75 0.25 0.25
8 1 0.75 0.75 0.75
ITEM: TIMESTEP
1
ITEM: NUMBER OF ATOMS
8
ITEM: BOX BOUNDS pp pp pp
-1.8063493358866367e-06 5.4687293950493352e+00
-1.8063493358866367e-06 5.4687293950493352e+00
-1.8063493358866367e-06 5.4687293950493352e+00
ITEM: ATOMS id type xs ys zs
1 1 0.499806 0.499511 0.000347109
2 1 0.500032 0.000287478 0.499821
3 1 -4.64555e-05 0.500234 0.499957
4 1 0.000233072 0.000233394 -0.000123326
5 1 0.250324 0.249957 0.750326
6 1 0.249656 0.74982 0.24978
7 1 0.750295 0.249672 0.250147
8 1 0.749701 0.750285 0.749745
ITEM: TIMESTEP
2
ITEM: NUMBER OF ATOMS
8
ITEM: BOX BOUNDS pp pp pp
-7.2503408619084553e-06 5.4687348390408612e+00
-7.2503408619084553e-06 5.4687348390408612e+00
-7.2503408619084553e-06 5.4687348390408612e+00
ITEM: ATOMS id type xs ys zs
1 1 0.499613 0.499023 0.000694047
2 1 0.500064 0.000574531 0.499642
3 1 -9.28756e-05 0.500468 0.499915
4 1 0.000465829 0.000466359 -0.000246794
5 1 0.250647 0.249914 0.750651
6 1 0.249312 0.74964 0.24956
7 1 0.75059 0.249345 0.250293
8 1 0.749401 0.750569 0.749491
ITEM: TIMESTEP
3
ITEM: NUMBER OF ATOMS
8
ITEM: BOX BOUNDS pp pp pp
-1.6343116007622172e-05 5.4687439318160074e+00
-1.6343116007622172e-05 5.4687439318160074e+00
-1.6343116007622172e-05 5.4687439318160074e+00
ITEM: ATOMS id type xs ys zs
1 1 0.499421 0.498536 0.00104065
2 1 0.500095 0.000860738 0.499463
3 1 -0.000139227 0.500701 0.499873
4 1 0.000697957 0.000698469 -0.000370549
5 1 0.25097 0.249872 0.750976
6 1 0.248968 0.74946 0.249341
7 1 0.750885 0.249019 0.250439
8 1 0.749102 0.750853 0.749237
ITEM: TIMESTEP
4
ITEM: NUMBER OF ATOMS
8
ITEM: BOX BOUNDS pp pp pp
-2.9090185379221367e-05 5.4687566788853790e+00
-2.9090185379221367e-05 5.4687566788853790e+00
-2.9090185379221367e-05 5.4687566788853790e+00
ITEM: ATOMS id type xs ys zs
1 1 0.499231 0.498051 0.00138675
2 1 0.500125 0.00114568 0.499284
3 1 -0.00018548 0.500933 0.499832
4 1 0.000929141 0.000929298 -0.000494729
5 1 0.251292 0.249831 0.751298
6 1 0.248626 0.749281 0.249122
7 1 0.75118 0.248694 0.250586
8 1 0.748803 0.751136 0.748985
ITEM: TIMESTEP
5
ITEM: NUMBER OF ATOMS
8
ITEM: BOX BOUNDS pp pp pp
-4.5493844270438899e-05 5.4687730825442706e+00
-4.5493844270438899e-05 5.4687730825442706e+00
-4.5493844270438899e-05 5.4687730825442706e+00
ITEM: ATOMS id type xs ys zs
1 1 0.499043 0.497567 0.00173221
2 1 0.500153 0.00142895 0.499105
3 1 -0.000231609 0.501164 0.499793
4 1 0.00115907 0.00115842 -0.000619469
5 1 0.251612 0.24979 0.751619
6 1 0.248286 0.749103 0.248904
7 1 0.751475 0.24837 0.250731
8 1 0.748504 0.751417 0.748735
ITEM: TIMESTEP
6
ITEM: NUMBER OF ATOMS
8
ITEM: BOX BOUNDS pp pp pp
-6.5559398621406473e-05 5.4687931480986212e+00
-6.5559398621406473e-05 5.4687931480986212e+00
-6.5559398621406473e-05 5.4687931480986212e+00
ITEM: ATOMS id type xs ys zs
1 1 0.498858 0.497087 0.00207689
2 1 0.50018 0.00171012 0.498925
3 1 -0.000277594 0.501394 0.499756
4 1 0.00138743 0.00138543 -0.000744905
5 1 0.251931 0.249751 0.751936
6 1 0.247947 0.748927 0.248687
7 1 0.75177 0.248048 0.250876
8 1 0.748205 0.751698 0.748487
ITEM: TIMESTEP
7
ITEM: NUMBER OF ATOMS
8
ITEM: BOX BOUNDS pp pp pp
-8.9290876927883289e-05 5.4688168795769272e+00
-8.9290876927883289e-05 5.4688168795769272e+00
-8.9290876927883289e-05 5.4688168795769272e+00
ITEM: ATOMS id type xs ys zs
1 1 0.498675 0.496609 0.00242064
2 1 0.500205 0.00198881 0.498745
3 1 -0.000323416 0.501622 0.499721
4 1 0.00161392 0.0016099 -0.000871169
5 1 0.252248 0.249714 0.75225
6 1 0.24761 0.748752 0.248471
7 1 0.752065 0.247729 0.251021
8 1 0.747906 0.751976 0.748242
ITEM: TIMESTEP
8
ITEM: NUMBER OF ATOMS
8
ITEM: BOX BOUNDS pp pp pp
-1.1669010214720998e-04 5.4688442788021465e+00
-1.1669010214720998e-04 5.4688442788021465e+00
-1.1669010214720998e-04 5.4688442788021465e+00
ITEM: ATOMS id type xs ys zs
1 1 0.498497 0.496135 0.00276335
2 1 0.500228 0.00226462 0.498565
3 1 -0.000369062 0.501848 0.499688
4 1 0.00183822 0.00183142 -0.000998388
5 1 0.252562 0.249677 0.752561
6 1 0.247277 0.748579 0.248256
7 1 0.75236 0.247412 0.251165
8 1 0.747608 0.752252 0.748
ITEM: TIMESTEP
9
ITEM: NUMBER OF ATOMS
8
ITEM: BOX BOUNDS pp pp pp
-1.4776343558420280e-04 5.4688753521355835e+00
-1.4776343558420280e-04 5.4688753521355835e+00
-1.4776343558420280e-04 5.4688753521355835e+00
ITEM: ATOMS id type xs ys zs
1 1 0.498323 0.495666 0.00310488
2 1 0.500248 0.00253715 0.498384
3 1 -0.00041452 0.502072 0.499659
4 1 0.00206005 0.00204959 -0.00112669
5 1 0.252874 0.249643 0.752866
6 1 0.246946 0.748408 0.248043
7 1 0.752654 0.247098 0.251308
8 1 0.74731 0.752527 0.747761
ITEM: TIMESTEP
10
ITEM: NUMBER OF ATOMS
8
ITEM: BOX BOUNDS pp pp pp
-1.8251466248520032e-04 5.4689101033624850e+00
-1.8251466248520032e-04 5.4689101033624850e+00
-1.8251466248520032e-04 5.4689101033624850e+00
ITEM: ATOMS id type xs ys zs
1 1 0.498154 0.495201 0.00344514
2 1 0.500265 0.00280604 0.498203
3 1 -0.000459783 0.502293 0.499632
4 1 0.0022791 0.00226402 -0.0012562
5 1 0.253183 0.249611 0.753167
6 1 0.246618 0.748239 0.247831
7 1 0.752949 0.246788 0.251451
8 1 0.747012 0.752798 0.747527
ITEM: TIMESTEP
11
ITEM: NUMBER OF ATOMS
8
ITEM: BOX BOUNDS pp pp pp
-2.2094506319536578e-04 5.4689485337631947e+00
-2.2094506319536578e-04 5.4689485337631947e+00
-2.2094506319536578e-04 5.4689485337631947e+00
ITEM: ATOMS id type xs ys zs
1 1 0.49799 0.494741 0.00378401
2 1 0.500279 0.00307089 0.498021
3 1 -0.000504847 0.502512 0.49961
4 1 0.00249509 0.00247431 -0.00138703
5 1 0.253489 0.249581 0.753462
6 1 0.246294 0.748073 0.247622
7 1 0.753244 0.246481 0.251592
8 1 0.746715 0.753067 0.747296
ITEM: TIMESTEP
12
ITEM: NUMBER OF ATOMS
8
ITEM: BOX BOUNDS pp pp pp
-2.6305280239080631e-04 5.4689906415023906e+00
-2.6305280239080631e-04 5.4689906415023906e+00
-2.6305280239080631e-04 5.4689906415023906e+00
ITEM: ATOMS id type xs ys zs
1 1 0.497832 0.494287 0.0041214
2 1 0.500289 0.00333136 0.497839
3 1 -0.000549709 0.502728 0.499591
4 1 0.00270771 0.00268008 -0.0015193
5 1 0.253791 0.249554 0.753751
6 1 0.245974 0.747909 0.247414
7 1 0.753539 0.246178 0.251733
8 1 0.746418 0.753332 0.747071
ITEM: TIMESTEP
13
ITEM: NUMBER OF ATOMS
8
ITEM: BOX BOUNDS pp pp pp
-3.0883954578797557e-04 5.4690364282457882e+00
-3.0883954578797557e-04 5.4690364282457882e+00
-3.0883954578797557e-04 5.4690364282457882e+00
ITEM: ATOMS id type xs ys zs
1 1 0.49768 0.493839 0.0044572
2 1 0.500295 0.00358709 0.497657
3 1 -0.000594368 0.502941 0.499576
4 1 0.0029167 0.00288097 -0.00165313
5 1 0.25409 0.249529 0.754034
6 1 0.245658 0.747748 0.247208
7 1 0.753833 0.24588 0.251872
8 1 0.746122 0.753594 0.74685
ITEM: TIMESTEP
14
ITEM: NUMBER OF ATOMS
8
ITEM: BOX BOUNDS pp pp pp
-3.5829596573710987e-04 5.4690858846657378e+00
-3.5829596573710987e-04 5.4690858846657378e+00
-3.5829596573710987e-04 5.4690858846657378e+00
ITEM: ATOMS id type xs ys zs
1 1 0.497534 0.493398 0.00479135
2 1 0.500297 0.00383774 0.497473
3 1 -0.000638829 0.503151 0.499566
4 1 0.00312177 0.00307659 -0.00178863
5 1 0.254384 0.249507 0.754309
6 1 0.245347 0.74759 0.247004
7 1 0.754128 0.245587 0.25201
8 1 0.745827 0.753853 0.746635
ITEM: TIMESTEP
15
ITEM: NUMBER OF ATOMS
8
ITEM: BOX BOUNDS pp pp pp
-4.1139803669798525e-04 5.4691389867366986e+00
-4.1139803669798525e-04 5.4691389867366986e+00
-4.1139803669798525e-04 5.4691389867366986e+00
ITEM: ATOMS id type xs ys zs
1 1 0.497396 0.492964 0.00512375
2 1 0.500295 0.00408297 0.49729
3 1 -0.000683097 0.503357 0.49956
4 1 0.00332266 0.00326661 -0.00192589
5 1 0.254674 0.249488 0.754577
6 1 0.245041 0.747436 0.246803
7 1 0.754423 0.245299 0.252147
8 1 0.745532 0.754107 0.746426
ITEM: TIMESTEP
16
ITEM: NUMBER OF ATOMS
8
ITEM: BOX BOUNDS pp pp pp
-4.6813276285018190e-04 5.4691957214628504e+00
-4.6813276285018190e-04 5.4691957214628504e+00
-4.6813276285018190e-04 5.4691957214628504e+00
ITEM: ATOMS id type xs ys zs
1 1 0.497265 0.492537 0.00545434
2 1 0.500288 0.00432246 0.497105
3 1 -0.000727178 0.503559 0.49956
4 1 0.0035191 0.00345068 -0.00206503
5 1 0.25496 0.249473 0.754836
6 1 0.244739 0.747285 0.246604
7 1 0.754718 0.245016 0.252283
8 1 0.745238 0.754357 0.746223
ITEM: TIMESTEP
17
ITEM: NUMBER OF ATOMS
8
ITEM: BOX BOUNDS pp pp pp
-5.2848633657687216e-04 5.4692560750365775e+00
-5.2848633657687216e-04 5.4692560750365775e+00
-5.2848633657687216e-04 5.4692560750365775e+00
ITEM: ATOMS id type xs ys zs
1 1 0.497142 0.492118 0.00578304
2 1 0.500276 0.0045559 0.496921
3 1 -0.000771081 0.503758 0.499565
4 1 0.00371085 0.00362847 -0.00220615
5 1 0.25524 0.24946 0.755088
6 1 0.244444 0.747138 0.246407
7 1 0.755012 0.244739 0.252417
8 1 0.744945 0.754603 0.746026
ITEM: TIMESTEP
18
ITEM: NUMBER OF ATOMS
8
ITEM: BOX BOUNDS pp pp pp
-5.9243891761084910e-04 5.4693200276176110e+00
-5.9243891761084910e-04 5.4693200276176110e+00
-5.9243891761084910e-04 5.4693200276176110e+00
ITEM: ATOMS id type xs ys zs
1 1 0.497028 0.491707 0.00610978
2 1 0.500259 0.00478299 0.496735
3 1 -0.000814816 0.503952 0.499575
4 1 0.00389765 0.00379965 -0.00234933
5 1 0.255516 0.249451 0.75533
6 1 0.244154 0.746994 0.246213
7 1 0.755307 0.244468 0.25255
8 1 0.744653 0.754845 0.745836
ITEM: TIMESTEP
19
ITEM: NUMBER OF ATOMS
8
ITEM: BOX BOUNDS pp pp pp
-6.5996321967265459e-04 5.4693875519196737e+00
-6.5996321967265459e-04 5.4693875519196737e+00
-6.5996321967265459e-04 5.4693875519196737e+00
ITEM: ATOMS id type xs ys zs
1 1 0.496922 0.491306 0.00643451
2 1 0.500236 0.00500344 0.496549
3 1 -0.000858391 0.504142 0.499592
4 1 0.00407926 0.00396391 -0.00249467
5 1 0.255786 0.249446 0.755563
6 1 0.24387 0.746855 0.246022
7 1 0.755602 0.244203 0.252681
8 1 0.744362 0.755082 0.745653
ITEM: TIMESTEP
20
ITEM: NUMBER OF ATOMS
8
ITEM: BOX BOUNDS pp pp pp
-7.3102458087781486e-04 5.4694586132808789e+00
-7.3102458087781486e-04 5.4694586132808789e+00
-7.3102458087781486e-04 5.4694586132808789e+00
ITEM: ATOMS id type xs ys zs
1 1 0.496826 0.490913 0.00675717
2 1 0.500208 0.00521698 0.496363
3 1 -0.000901819 0.504328 0.499614
4 1 0.00425546 0.00412096 -0.00264226
5 1 0.256051 0.249444 0.755786
6 1 0.243592 0.74672 0.245834
7 1 0.755897 0.243945 0.252811
8 1 0.744073 0.755313 0.745478
ITEM: TIMESTEP
21
ITEM: NUMBER OF ATOMS
8
ITEM: BOX BOUNDS pp pp pp
-8.0558627580407105e-04 5.4695331749758047e+00
-8.0558627580407105e-04 5.4695331749758047e+00
-8.0558627580407105e-04 5.4695331749758047e+00
ITEM: ATOMS id type xs ys zs
1 1 0.496738 0.49053 0.0070777
2 1 0.500174 0.00542334 0.496175
3 1 -0.000945111 0.504509 0.499643
4 1 0.00442603 0.00427051 -0.00279217
5 1 0.25631 0.249446 0.755999
6 1 0.243321 0.746589 0.245649
7 1 0.756191 0.243693 0.252939
8 1 0.743784 0.75554 0.74531
ITEM: TIMESTEP
22
ITEM: NUMBER OF ATOMS
8
ITEM: BOX BOUNDS pp pp pp
-8.8360260124442647e-04 5.4696111913012455e+00
-8.8360260124442647e-04 5.4696111913012455e+00
-8.8360260124442647e-04 5.4696111913012455e+00
ITEM: ATOMS id type xs ys zs
1 1 0.496661 0.490156 0.00739604
2 1 0.500134 0.00562227 0.495988
3 1 -0.000988279 0.504686 0.499678
4 1 0.00459074 0.00441229 -0.00294451
5 1 0.256564 0.249452 0.756201
6 1 0.243057 0.746462 0.245467
7 1 0.756486 0.243449 0.253065
8 1 0.743497 0.755761 0.74515
ITEM: TIMESTEP
23
ITEM: NUMBER OF ATOMS
8
ITEM: BOX BOUNDS pp pp pp
-9.6502473364479258e-04 5.4696926134336454e+00
-9.6502473364479258e-04 5.4696926134336454e+00
-9.6502473364479258e-04 5.4696926134336454e+00
ITEM: ATOMS id type xs ys zs
1 1 0.496594 0.489793 0.00771215
2 1 0.500087 0.00581354 0.495799
3 1 -0.00103133 0.504857 0.49972
4 1 0.0047494 0.00454605 -0.00309933
5 1 0.256811 0.249462 0.756393
6 1 0.242799 0.74634 0.245288
7 1 0.756781 0.243212 0.253189
8 1 0.74321 0.755976 0.744998
ITEM: TIMESTEP
24
ITEM: NUMBER OF ATOMS
8
ITEM: BOX BOUNDS pp pp pp
-1.0497880345710087e-03 5.4697773767345712e+00
-1.0497880345710087e-03 5.4697773767345712e+00
-1.0497880345710087e-03 5.4697773767345712e+00
ITEM: ATOMS id type xs ys zs
1 1 0.496536 0.48944 0.00802598
2 1 0.500034 0.00599691 0.49561
3 1 -0.00107428 0.505024 0.49977
4 1 0.00490181 0.00467155 -0.00325671
5 1 0.257052 0.249477 0.756573
6 1 0.242549 0.746222 0.245112
7 1 0.757076 0.242983 0.253312
8 1 0.742926 0.756185 0.744854
ITEM: TIMESTEP
25
ITEM: NUMBER OF ATOMS
8
ITEM: BOX BOUNDS pp pp pp
-1.1378235725651997e-03 5.4698654122725658e+00
-1.1378235725651997e-03 5.4698654122725658e+00
-1.1378235725651997e-03 5.4698654122725658e+00
ITEM: ATOMS id type xs ys zs
1 1 0.49649 0.489099 0.00833746
2 1 0.499974 0.00617217 0.49542
3 1 -0.00111714 0.505186 0.499826
4 1 0.0050478 0.00478854 -0.00341673
5 1 0.257286 0.249495 0.756742
6 1 0.242306 0.74611 0.24494
7 1 0.757371 0.242761 0.253433
8 1 0.742643 0.756389 0.744719
ITEM: TIMESTEP
26
ITEM: NUMBER OF ATOMS
8
ITEM: BOX BOUNDS pp pp pp
-1.2290573306437125e-03 5.4699566460306439e+00
-1.2290573306437125e-03 5.4699566460306439e+00
-1.2290573306437125e-03 5.4699566460306439e+00
ITEM: ATOMS id type xs ys zs
1 1 0.496455 0.488768 0.00864657
2 1 0.499908 0.00633913 0.49523
3 1 -0.00115992 0.505342 0.499889
4 1 0.00518718 0.00489682 -0.00357944
5 1 0.257514 0.249518 0.756898
6 1 0.24207 0.746002 0.244771
7 1 0.757666 0.242547 0.253552
8 1 0.742361 0.756586 0.744593
ITEM: TIMESTEP
27
ITEM: NUMBER OF ATOMS
8
ITEM: BOX BOUNDS pp pp pp
-1.3233980912339405e-03 5.4700509867912341e+00
-1.3233980912339405e-03 5.4700509867912341e+00
-1.3233980912339405e-03 5.4700509867912341e+00
ITEM: ATOMS id type xs ys zs
1 1 0.49643 0.488449 0.00895323
2 1 0.499835 0.0064976 0.495039
3 1 -0.00120262 0.505494 0.49996
4 1 0.00531979 0.00499619 -0.00374492
5 1 0.257735 0.249545 0.757043
6 1 0.241842 0.745899 0.244605
7 1 0.75796 0.242342 0.253669
8 1 0.742081 0.756777 0.744475
ITEM: TIMESTEP
28
ITEM: NUMBER OF ATOMS
8
ITEM: BOX BOUNDS pp pp pp
-1.4207546604683152e-03 5.4701483433604690e+00
-1.4207546604683152e-03 5.4701483433604690e+00
-1.4207546604683152e-03 5.4701483433604690e+00
ITEM: ATOMS id type xs ys zs
1 1 0.496417 0.488142 0.00925741
2 1 0.499755 0.0066474 0.494848
3 1 -0.00124525 0.50564 0.500039
4 1 0.00544549 0.00508646 -0.00391322
5 1 0.257949 0.249577 0.757175
6 1 0.241622 0.745801 0.244443
7 1 0.758255 0.242144 0.253784
8 1 0.741802 0.756962 0.744367
ITEM: TIMESTEP
29
ITEM: NUMBER OF ATOMS
8
ITEM: BOX BOUNDS pp pp pp
-1.5210171970170272e-03 5.4702486058970177e+00
-1.5210171970170272e-03 5.4702486058970177e+00
-1.5210171970170272e-03 5.4702486058970177e+00
ITEM: ATOMS id type xs ys zs
1 1 0.496415 0.487846 0.00955904
2 1 0.499667 0.00678837 0.494656
3 1 -0.00128781 0.505781 0.500125
4 1 0.00556412 0.00516747 -0.00408439
5 1 0.258156 0.249614 0.757295
6 1 0.24141 0.745708 0.244285
7 1 0.75855 0.241956 0.253897
8 1 0.741525 0.75714 0.744268
ITEM: TIMESTEP
30
ITEM: NUMBER OF ATOMS
8
ITEM: BOX BOUNDS pp pp pp
-1.6240688012012505e-03 5.4703516575012019e+00
-1.6240688012012505e-03 5.4703516575012019e+00
-1.6240688012012505e-03 5.4703516575012019e+00
ITEM: ATOMS id type xs ys zs
1 1 0.496426 0.487563 0.00985807
2 1 0.499572 0.00692037 0.494463
3 1 -0.00133031 0.505916 0.500219
4 1 0.00567556 0.00523905 -0.00425849
5 1 0.258356 0.249655 0.757401
6 1 0.241206 0.74562 0.24413
7 1 0.758845 0.241775 0.254008
8 1 0.74125 0.757311 0.744178
ITEM: TIMESTEP
31
ITEM: NUMBER OF ATOMS
8
ITEM: BOX BOUNDS pp pp pp
-1.7297791744592672e-03 5.4704573678744595e+00
-1.7297791744592672e-03 5.4704573678744595e+00
-1.7297791744592672e-03 5.4704573678744595e+00
ITEM: ATOMS id type xs ys zs
1 1 0.496448 0.487292 0.0101544
2 1 0.49947 0.00704326 0.49427
3 1 -0.00137275 0.506046 0.500321
4 1 0.00577969 0.00530108 -0.00443557
5 1 0.258548 0.2497 0.757495
6 1 0.24101 0.745537 0.243979
7 1 0.759139 0.241604 0.254118
8 1 0.740977 0.757476 0.744098
ITEM: TIMESTEP
32
ITEM: NUMBER OF ATOMS
8
ITEM: BOX BOUNDS pp pp pp
-1.8380135741051795e-03 5.4705656022741049e+00
-1.8380135741051795e-03 5.4705656022741049e+00
-1.8380135741051795e-03 5.4705656022741049e+00
ITEM: ATOMS id type xs ys zs
1 1 0.496482 0.487034 0.0104481
2 1 0.499361 0.00715692 0.494076
3 1 -0.00141512 0.506171 0.500431
4 1 0.0058764 0.00535342 -0.00461568
5 1 0.258733 0.249751 0.757575
6 1 0.240823 0.745459 0.243832
7 1 0.759434 0.241441 0.254225
8 1 0.740706 0.757633 0.744028
ITEM: TIMESTEP
33
ITEM: NUMBER OF ATOMS
8
ITEM: BOX BOUNDS pp pp pp
-1.9486260521248688e-03 5.4706762147521246e+00
-1.9486260521248688e-03 5.4706762147521246e+00
-1.9486260521248688e-03 5.4706762147521246e+00
ITEM: ATOMS id type xs ys zs
1 1 0.496528 0.486789 0.010739
2 1 0.499244 0.00726124 0.493882
3 1 -0.00145743 0.50629 0.50055
4 1 0.00596559 0.00539597 -0.00479884
5 1 0.258911 0.249806 0.757642
6 1 0.240644 0.745387 0.243689
7 1 0.759728 0.241288 0.25433
8 1 0.740436 0.757783 0.743967
ITEM: TIMESTEP
34
ITEM: NUMBER OF ATOMS
8
ITEM: BOX BOUNDS pp pp pp
-2.0614572257504626e-03 5.4707890459257502e+00
-2.0614572257504626e-03 5.4707890459257502e+00
-2.0614572257504626e-03 5.4707890459257502e+00
ITEM: ATOMS id type xs ys zs
1 1 0.496587 0.486557 0.011027
2 1 0.49912 0.00735612 0.493687
3 1 -0.00149966 0.506404 0.500676
4 1 0.00604717 0.00542863 -0.00498511
5 1 0.259081 0.249867 0.757696
6 1 0.240473 0.74532 0.24355
7 1 0.760023 0.241143 0.254433
8 1 0.740169 0.757926 0.743916
ITEM: TIMESTEP
35
ITEM: NUMBER OF ATOMS
8
ITEM: BOX BOUNDS pp pp pp
-2.1763338514344532e-03 5.4709039225514342e+00
-2.1763338514344532e-03 5.4709039225514342e+00
-2.1763338514344532e-03 5.4709039225514342e+00
ITEM: ATOMS id type xs ys zs
1 1 0.496657 0.486337 0.0113121
2 1 0.498988 0.00744149 0.493491
3 1 -0.00154181 0.506512 0.500811
4 1 0.00612107 0.00545134 -0.00517452
5 1 0.259243 0.249932 0.757736
6 1 0.240312 0.745257 0.243415
7 1 0.760317 0.241007 0.254534
8 1 0.739903 0.758061 0.743876
ITEM: TIMESTEP
36
ITEM: NUMBER OF ATOMS
8
ITEM: BOX BOUNDS pp pp pp
-2.2930738048922983e-03 5.4710206625048921e+00
-2.2930738048922983e-03 5.4710206625048921e+00
-2.2930738048922983e-03 5.4710206625048921e+00
ITEM: ATOMS id type xs ys zs
1 1 0.496741 0.486132 0.0115942
2 1 0.498849 0.00751727 0.493295
3 1 -0.00158386 0.506615 0.500954
4 1 0.00618723 0.00546403 -0.00536709
5 1 0.259398 0.250002 0.757763
6 1 0.240158 0.745201 0.243283
7 1 0.760611 0.24088 0.254633
8 1 0.739639 0.758189 0.743845
ITEM: TIMESTEP
37
ITEM: NUMBER OF ATOMS
8
ITEM: BOX BOUNDS pp pp pp
-2.4114870323379556e-03 5.4711390757323377e+00
-2.4114870323379556e-03 5.4711390757323377e+00
-2.4114870323379556e-03 5.4711390757323377e+00
ITEM: ATOMS id type xs ys zs
1 1 0.496836 0.485939 0.0118732
2 1 0.498702 0.00758342 0.493099
3 1 -0.0016258 0.506712 0.501105
4 1 0.00624558 0.00546665 -0.00556285
5 1 0.259545 0.250077 0.757775
6 1 0.240014 0.745149 0.243156
7 1 0.760904 0.240763 0.25473
8 1 0.739378 0.75831 0.743824
ITEM: TIMESTEP
38
ITEM: NUMBER OF ATOMS
8
ITEM: BOX BOUNDS pp pp pp
-2.5313684264243186e-03 5.4712589571264250e+00
-2.5313684264243186e-03 5.4712589571264250e+00
-2.5313684264243186e-03 5.4712589571264250e+00
ITEM: ATOMS id type xs ys zs
1 1 0.496945 0.48576 0.012149
2 1 0.498548 0.00763988 0.492902
3 1 -0.00166761 0.506804 0.501265
4 1 0.00629609 0.00545918 -0.00576183
5 1 0.259684 0.250157 0.757774
6 1 0.239878 0.745102 0.243033
7 1 0.761198 0.240655 0.254825
8 1 0.739118 0.758423 0.743814
ITEM: TIMESTEP
39
ITEM: NUMBER OF ATOMS
8
ITEM: BOX BOUNDS pp pp pp
-2.6525048513672544e-03 5.4713800935513675e+00
-2.6525048513672544e-03 5.4713800935513675e+00
-2.6525048513672544e-03 5.4713800935513675e+00
ITEM: ATOMS id type xs ys zs
1 1 0.497065 0.485595 0.0124216
2 1 0.498387 0.00768662 0.492704
3 1 -0.00170928 0.50689 0.501433
4 1 0.00633874 0.0054416 -0.00596404
5 1 0.259816 0.250243 0.75776
6 1 0.239751 0.745061 0.242915
7 1 0.761491 0.240555 0.254918
8 1 0.738861 0.758528 0.743813
ITEM: TIMESTEP
40
ITEM: NUMBER OF ATOMS
8
ITEM: BOX BOUNDS pp pp pp
-2.7746739597436232e-03 5.4715022626597438e+00
-2.7746739597436232e-03 5.4715022626597438e+00
-2.7746739597436232e-03 5.4715022626597438e+00
ITEM: ATOMS id type xs ys zs
1 1 0.497198 0.485444 0.0126909
2 1 0.498218 0.00772362 0.492506
3 1 -0.00175078 0.506971 0.501609
4 1 0.00637349 0.00541392 -0.00616951
5 1 0.259939 0.250333 0.757731
6 1 0.239632 0.745024 0.2428
7 1 0.761783 0.240465 0.255009
8 1 0.738606 0.758625 0.743823
ITEM: TIMESTEP
41
ITEM: NUMBER OF ATOMS
8
ITEM: BOX BOUNDS pp pp pp
-2.8976395823527845e-03 5.4716252282823534e+00
-2.8976395823527845e-03 5.4716252282823534e+00
-2.8976395823527845e-03 5.4716252282823534e+00
ITEM: ATOMS id type xs ys zs
1 1 0.497344 0.485306 0.0129566
2 1 0.498042 0.00775089 0.492307
3 1 -0.00179208 0.507047 0.501794
4 1 0.00640035 0.00537615 -0.00637823
5 1 0.260055 0.250428 0.757689
6 1 0.239523 0.744992 0.24269
7 1 0.762075 0.240384 0.255098
8 1 0.738353 0.758715 0.743843
ITEM: TIMESTEP
42
ITEM: NUMBER OF ATOMS
8
ITEM: BOX BOUNDS pp pp pp
-3.0211625126277397e-03 5.4717487512126279e+00
-3.0211625126277397e-03 5.4717487512126279e+00
-3.0211625126277397e-03 5.4717487512126279e+00
ITEM: ATOMS id type xs ys zs
1 1 0.497502 0.485182 0.0132189
2 1 0.497858 0.00776842 0.492108
3 1 -0.00183316 0.507118 0.501986
4 1 0.00641931 0.00532833 -0.00659022
5 1 0.260163 0.250529 0.757634
6 1 0.239422 0.744966 0.242584
7 1 0.762367 0.240312 0.255186
8 1 0.738102 0.758796 0.743873
ITEM: TIMESTEP
43
ITEM: NUMBER OF ATOMS
8
ITEM: BOX BOUNDS pp pp pp
-3.1449910605445552e-03 5.4718725797605448e+00
-3.1449910605445552e-03 5.4718725797605448e+00
-3.1449910605445552e-03 5.4718725797605448e+00
ITEM: ATOMS id type xs ys zs
1 1 0.497672 0.485072 0.0134774
2 1 0.497668 0.00777623 0.491909
3 1 -0.00187399 0.507184 0.502188
4 1 0.00643039 0.00527051 -0.00680548
5 1 0.260263 0.250634 0.757565
6 1 0.23933 0.744944 0.242483
7 1 0.762658 0.240249 0.255271
8 1 0.737853 0.75887 0.743913
ITEM: TIMESTEP
44
ITEM: NUMBER OF ATOMS
8
ITEM: BOX BOUNDS pp pp pp
-3.2688640770035526e-03 5.4719964527770042e+00
-3.2688640770035526e-03 5.4719964527770042e+00
-3.2688640770035526e-03 5.4719964527770042e+00
ITEM: ATOMS id type xs ys zs
1 1 0.497855 0.484976 0.0137322
2 1 0.497471 0.00777437 0.491709
3 1 -0.00191454 0.507244 0.502397
4 1 0.00643363 0.00520275 -0.00702401
5 1 0.260355 0.250745 0.757482
6 1 0.239246 0.744927 0.242386
7 1 0.762948 0.240195 0.255355
8 1 0.737606 0.758936 0.743964
ITEM: TIMESTEP
45
ITEM: NUMBER OF ATOMS
8
ITEM: BOX BOUNDS pp pp pp
-3.3925128013785333e-03 5.4721201015013792e+00
-3.3925128013785333e-03 5.4721201015013792e+00
-3.3925128013785333e-03 5.4721201015013792e+00
ITEM: ATOMS id type xs ys zs
1 1 0.49805 0.484893 0.013983
2 1 0.497267 0.00776286 0.491508
3 1 -0.00195476 0.5073 0.502614
4 1 0.00642904 0.00512514 -0.00724579
5 1 0.260439 0.250861 0.757387
6 1 0.239171 0.744915 0.242293
7 1 0.763238 0.24015 0.255437
8 1 0.737361 0.758994 0.744024
ITEM: TIMESTEP
46
ITEM: NUMBER OF ATOMS
8
ITEM: BOX BOUNDS pp pp pp
-3.5156672147507173e-03 5.4722432559147514e+00
-3.5156672147507173e-03 5.4722432559147514e+00
-3.5156672147507173e-03 5.4722432559147514e+00
ITEM: ATOMS id type xs ys zs
1 1 0.498256 0.484825 0.0142298
2 1 0.497056 0.00774177 0.491307
3 1 -0.00199464 0.507351 0.502839
4 1 0.00641669 0.00503776 -0.00747083
5 1 0.260516 0.250981 0.757278
6 1 0.239105 0.744907 0.242205
7 1 0.763527 0.240113 0.255517
8 1 0.737118 0.759043 0.744094
ITEM: TIMESTEP
47
ITEM: NUMBER OF ATOMS
8
ITEM: BOX BOUNDS pp pp pp
-3.6380439631904515e-03 5.4723656326631911e+00
-3.6380439631904515e-03 5.4723656326631911e+00
-3.6380439631904515e-03 5.4723656326631911e+00
ITEM: ATOMS id type xs ys zs
1 1 0.498475 0.48477 0.0144725
2 1 0.496838 0.00771117 0.491106
3 1 -0.00203413 0.507397 0.503072
4 1 0.00639664 0.00494073 -0.00769909
5 1 0.260584 0.251107 0.757156
6 1 0.239047 0.744904 0.242122
7 1 0.763815 0.240085 0.255595
8 1 0.736878 0.759085 0.744175
ITEM: TIMESTEP
48
ITEM: NUMBER OF ATOMS
8
ITEM: BOX BOUNDS pp pp pp
-3.7593587909832138e-03 5.4724869474909834e+00
-3.7593587909832138e-03 5.4724869474909834e+00
-3.7593587909832138e-03 5.4724869474909834e+00
ITEM: ATOMS id type xs ys zs
1 1 0.498705 0.484729 0.0147108
2 1 0.496615 0.00767113 0.490904
3 1 -0.00207319 0.507439 0.503313
4 1 0.00636894 0.00483417 -0.00793057
5 1 0.260646 0.251238 0.757022
6 1 0.238997 0.744905 0.242043
7 1 0.764102 0.240065 0.255672
8 1 0.73664 0.759119 0.744265
ITEM: TIMESTEP
49
ITEM: NUMBER OF ATOMS
8
ITEM: BOX BOUNDS pp pp pp
-3.8793153655021229e-03 5.4726069040655023e+00
-3.8793153655021229e-03 5.4726069040655023e+00
-3.8793153655021229e-03 5.4726069040655023e+00
ITEM: ATOMS id type xs ys zs
1 1 0.498947 0.484701 0.0149448
2 1 0.496385 0.00762174 0.490702
3 1 -0.00211178 0.507476 0.503562
4 1 0.0063337 0.00471822 -0.00816523
5 1 0.260699 0.251374 0.756875
6 1 0.238956 0.744911 0.241968
7 1 0.764388 0.240054 0.255747
8 1 0.736403 0.759144 0.744365
ITEM: TIMESTEP
50
ITEM: NUMBER OF ATOMS
8
ITEM: BOX BOUNDS pp pp pp
-3.9976170507851627e-03 5.4727252057507858e+00
-3.9976170507851627e-03 5.4727252057507858e+00
-3.9976170507851627e-03 5.4727252057507858e+00
ITEM: ATOMS id type xs ys zs
1 1 0.4992 0.484687 0.0151741
2 1 0.496149 0.00756312 0.4905
3 1 -0.00214986 0.507509 0.503818
4 1 0.00629098 0.00459304 -0.00840303
5 1 0.260745 0.251515 0.756717
6 1 0.238923 0.74492 0.241898
7 1 0.764673 0.240051 0.255821
8 1 0.736169 0.759161 0.744475
ITEM: TIMESTEP
51
ITEM: NUMBER OF ATOMS
8
ITEM: BOX BOUNDS pp pp pp
-4.1139683861550758e-03 5.4728415570861557e+00
-4.1139683861550758e-03 5.4728415570861557e+00
-4.1139683861550758e-03 5.4728415570861557e+00
ITEM: ATOMS id type xs ys zs
1 1 0.499464 0.484687 0.0153988
2 1 0.495908 0.00749537 0.490298
3 1 -0.00218739 0.507538 0.504081
4 1 0.00624091 0.00445879 -0.00864394
5 1 0.260783 0.251661 0.756546
6 1 0.238898 0.744934 0.241833
7 1 0.764956 0.240056 0.255893
8 1 0.735937 0.759171 0.744594
ITEM: TIMESTEP
52
ITEM: NUMBER OF ATOMS
8
ITEM: BOX BOUNDS pp pp pp
-4.2280621078414349e-03 5.4729556508078421e+00
-4.2280621078414349e-03 5.4729556508078421e+00
-4.2280621078414349e-03 5.4729556508078421e+00
ITEM: ATOMS id type xs ys zs
1 1 0.49974 0.4847 0.0156186
2 1 0.495661 0.00741863 0.490095
3 1 -0.00222432 0.507562 0.504352
4 1 0.00618359 0.00431566 -0.00888791
5 1 0.260814 0.251811 0.756363
6 1 0.238881 0.744951 0.241773
7 1 0.765239 0.240069 0.255964
8 1 0.735707 0.759172 0.744723
ITEM: TIMESTEP
53
ITEM: NUMBER OF ATOMS
8
ITEM: BOX BOUNDS pp pp pp
-4.3395996160109362e-03 5.4730671883160120e+00
-4.3395996160109362e-03 5.4730671883160120e+00
-4.3395996160109362e-03 5.4730671883160120e+00
ITEM: ATOMS id type xs ys zs
1 1 0.500025 0.484727 0.0158334
2 1 0.495409 0.00733303 0.489892
3 1 -0.00226063 0.507583 0.504629
4 1 0.00611914 0.00416383 -0.0091349
5 1 0.260838 0.251967 0.756169
6 1 0.238872 0.744972 0.241717
7 1 0.765519 0.240089 0.256033
8 1 0.735478 0.759165 0.744861
ITEM: TIMESTEP
54
ITEM: NUMBER OF ATOMS
8
ITEM: BOX BOUNDS pp pp pp
-4.4482723066638918e-03 5.4731758610066654e+00
-4.4482723066638918e-03 5.4731758610066654e+00
-4.4482723066638918e-03 5.4731758610066654e+00
ITEM: ATOMS id type xs ys zs
1 1 0.500322 0.484766 0.0160431
2 1 0.495152 0.00723873 0.489689
3 1 -0.00229625 0.5076 0.504914
4 1 0.0060477 0.00400353 -0.00938484
5 1 0.260854 0.252127 0.755964
6 1 0.238871 0.744997 0.241666
7 1 0.765799 0.240117 0.256102
8 1 0.735252 0.759151 0.745008
ITEM: TIMESTEP
55
ITEM: NUMBER OF ATOMS
8
ITEM: BOX BOUNDS pp pp pp
-4.5537793827543638e-03 5.4732813680827563e+00
-4.5537793827543638e-03 5.4732813680827563e+00
-4.5537793827543638e-03 5.4732813680827563e+00
ITEM: ATOMS id type xs ys zs
1 1 0.500628 0.484819 0.0162475
2 1 0.49489 0.00713588 0.489485
3 1 -0.00233116 0.507614 0.505205
4 1 0.00596941 0.00383496 -0.00963767
5 1 0.260863 0.252292 0.755749
6 1 0.238877 0.745025 0.241619
7 1 0.766076 0.240152 0.256168
8 1 0.735027 0.759128 0.745164
ITEM: TIMESTEP
56
ITEM: NUMBER OF ATOMS
8
ITEM: BOX BOUNDS pp pp pp
-4.6558122326194606e-03 5.4733834009326214e+00
-4.6558122326194606e-03 5.4733834009326214e+00
-4.6558122326194606e-03 5.4733834009326214e+00
ITEM: ATOMS id type xs ys zs
1 1 0.500945 0.484884 0.0164464
2 1 0.494623 0.00702467 0.489282
3 1 -0.00236531 0.507624 0.505503
4 1 0.00588443 0.00365837 -0.00989332
5 1 0.260866 0.252461 0.755523
6 1 0.23889 0.745056 0.241577
7 1 0.766352 0.240194 0.256234
8 1 0.734805 0.759098 0.745328
ITEM: TIMESTEP
57
ITEM: NUMBER OF ATOMS
8
ITEM: BOX BOUNDS pp pp pp
-4.7540718530330039e-03 5.4734816605530350e+00
-4.7540718530330039e-03 5.4734816605530350e+00
-4.7540718530330039e-03 5.4734816605530350e+00
ITEM: ATOMS id type xs ys zs
1 1 0.50127 0.484962 0.0166398
2 1 0.494353 0.00690527 0.489079
3 1 -0.00239866 0.507632 0.505806
4 1 0.00579291 0.00347401 -0.0101517
5 1 0.260861 0.252635 0.755287
6 1 0.238911 0.74509 0.24154
7 1 0.766626 0.240243 0.256298
8 1 0.734584 0.759059 0.745502
ITEM: TIMESTEP
58
ITEM: NUMBER OF ATOMS
8
ITEM: BOX BOUNDS pp pp pp
-4.8482583108544475e-03 5.4735758470108564e+00
-4.8482583108544475e-03 5.4735758470108564e+00
-4.8482583108544475e-03 5.4735758470108564e+00
ITEM: ATOMS id type xs ys zs
1 1 0.501605 0.485052 0.0168274
2 1 0.494079 0.00677788 0.488875
3 1 -0.00243117 0.507636 0.506116
4 1 0.00569503 0.00328212 -0.0104128
5 1 0.26085 0.252813 0.755041
6 1 0.238939 0.745127 0.241508
7 1 0.766898 0.240298 0.256362
8 1 0.734365 0.759013 0.745683
ITEM: TIMESTEP
59
ITEM: NUMBER OF ATOMS
8
ITEM: BOX BOUNDS pp pp pp
-4.9380824459359651e-03 5.4736656711459384e+00
-4.9380824459359651e-03 5.4736656711459384e+00
-4.9380824459359651e-03 5.4736656711459384e+00
ITEM: ATOMS id type xs ys zs
1 1 0.50195 0.485155 0.0170092
2 1 0.493801 0.00664271 0.488672
3 1 -0.00246281 0.507637 0.506432
4 1 0.00559098 0.003083 -0.0106764
5 1 0.260832 0.252996 0.754787
6 1 0.238973 0.745167 0.24148
7 1 0.767168 0.240359 0.256424
8 1 0.734148 0.758959 0.745873
ITEM: TIMESTEP
60
ITEM: NUMBER OF ATOMS
8
ITEM: BOX BOUNDS pp pp pp
-5.0232552669888797e-03 5.4737508439669913e+00
-5.0232552669888797e-03 5.4737508439669913e+00
-5.0232552669888797e-03 5.4737508439669913e+00
ITEM: ATOMS id type xs ys zs
1 1 0.502302 0.48527 0.0171849