 vasp.5.4.4.18Apr17-6-g9f103f2a35 (build Sep 16 2021 14:01:42) gamma-only       
  
 executed on             LinuxIFC date 2022.08.14  19:40:49
 running on   24 total cores
 distrk:  each k-point on   24 cores,    1 groups
 distr:  one band on NCORES_PER_BAND=   1 cores,   24 groups


--------------------------------------------------------------------------------------------------------


 INCAR:
 POTCAR:    PAW_PBE Si 05Jan2001                  

 ----------------------------------------------------------------------------- 
|                                                                             |
|           W    W    AA    RRRRR   N    N  II  N    N   GGGG   !!!           |
|           W    W   A  A   R    R  NN   N  II  NN   N  G    G  !!!           |
|           W    W  A    A  R    R  N N  N  II  N N  N  G       !!!           |
|           W WW W  AAAAAA  RRRRR   N  N N  II  N  N N  G  GGG   !            |
|           WW  WW  A    A  R   R   N   NN  II  N   NN  G    G                |
|           W    W  A    A  R    R  N    N  II  N    N   GGGG   !!!           |
|                                                                             |
|      For optimal performance we recommend to set                            |
|        NCORE= 4 - approx SQRT( number of cores)                             |
|      NCORE specifies how many cores store one orbital (NPAR=cpu/NCORE).     |
|      This setting can  greatly improve the performance of VASP for DFT.     |
|      The default,   NCORE=1            might be grossly inefficient         |
|      on modern multi-core architectures or massively parallel machines.     |
|      Do your own testing !!!!                                               |
|      Unfortunately you need to use the default for GW and RPA calculations. |
|      (for HF NCORE is supported but not extensively tested yet)             |
|                                                                             |
 ----------------------------------------------------------------------------- 

 POTCAR:    PAW_PBE Si 05Jan2001                  
   VRHFIN =Si: s2p2                                                             
   LEXCH  = PE                                                                  
   EATOM  =   103.0669 eV,    7.5752 Ry                                         
                                                                                
   TITEL  = PAW_PBE Si 05Jan2001                                                
   LULTRA =        F    use ultrasoft PP ?                                      
   IUNSCR =        1    unscreen: 0-lin 1-nonlin 2-no                           
   RPACOR =    1.500    partial core radius                                     
   POMASS =   28.085; ZVAL   =    4.000    mass and valenz                      
   RCORE  =    1.900    outmost cutoff radius                                   
   RWIGS  =    2.480; RWIGS  =    1.312    wigner-seitz radius (au A)           
   ENMAX  =  245.345; ENMIN  =  184.009 eV                                      
   ICORE  =        2    local potential                                         
   LCOR   =        T    correct aug charges                                     
   LPAW   =        T    paw PP                                                  
   EAUG   =  322.069                                                            
   DEXC   =    0.000                                                            
   RMAX   =    1.950    core radius for proj-oper                               
   RAUG   =    1.300    factor for augmentation sphere                          
   RDEP   =    1.993    radius for radial grids                                 
   RDEPT  =    1.837    core radius for aug-charge                              
                                                                                
   Atomic configuration                                                         
    6 entries                                                                   
     n  l   j            E        occ.                                          
     1  0  0.50     -1785.8828   2.0000                                         
     2  0  0.50      -139.4969   2.0000                                         
     2  1  1.50       -95.5546   6.0000                                         
     3  0  0.50       -10.8127   2.0000                                         
     3  1  0.50        -4.0811   2.0000                                         
     3  2  1.50        -4.0817   0.0000                                         
   Description                                                                  
     l       E           TYP  RCUT    TYP  RCUT                                 
     0    -10.8127223     23  1.900                                             
     0     -7.6451159     23  1.900                                             
     1     -4.0811372     23  1.900                                             
     1      2.4879257     23  1.900                                             
     2     -4.0817478      7  1.900                                             
  local pseudopotential read in
  partial core-charges read in
  partial kinetic energy density read in
  atomic valenz-charges read in
  non local Contribution for L=           0  read in
    real space projection operators read in
  non local Contribution for L=           0  read in
    real space projection operators read in
  non local Contribution for L=           1  read in
    real space projection operators read in
  non local Contribution for L=           1  read in
    real space projection operators read in
    PAW grid and wavefunctions read in
 
   number of l-projection  operators is LMAX  =           4
   number of lm-projection operators is LMMAX =           8
 
 Optimization of the real space projectors (new method)

 maximal supplied QI-value         = 19.84
 optimisation between [QCUT,QGAM] = [  6.94, 13.89] = [ 13.51, 54.02] Ry 
 Optimized for a Real-space Cutoff    1.43 Angstroem

   l    n(q)    QCUT    max X(q) W(low)/X(q) W(high)/X(q)  e(spline) 
   0      6     6.945   159.560    0.19E-02    0.13E-02    0.67E-07
   0      6     6.945   115.863    0.19E-02    0.13E-02    0.66E-07
   1      5     6.945    87.792    0.57E-03    0.17E-02    0.11E-06
   1      5     6.945    48.448    0.56E-03    0.16E-02    0.11E-06
  PAW_PBE Si 05Jan2001                  :
 energy of atom  1       EATOM= -103.0669
 kinetic energy error for atom=    0.0129 (will be added to EATOM!!)
 
 
 POSCAR: Si_2x2x2                                
  positions in direct lattice
  No initial velocities read in
 exchange correlation table for  LEXCH =        8
   RHO(1)=    0.500       N(1)  =     2000
   RHO(2)=  100.500       N(2)  =     4000
 


--------------------------------------------------------------------------------------------------------


 ion  position               nearest neighbor table
   1  0.250  0.250  0.000-  34 2.37  41 2.37  49 2.37  58 2.37
   2  0.250  0.250  0.500-  33 2.37  42 2.37  50 2.37  57 2.37
   3  0.250  0.750  0.000-  36 2.37  43 2.37  51 2.37  60 2.37
   4  0.250  0.750  0.500-  35 2.37  44 2.37  52 2.37  59 2.37
   5  0.750  0.250  0.000-  38 2.37  45 2.37  53 2.37  62 2.37
   6  0.750  0.250  0.500-  37 2.37  46 2.37  54 2.37  61 2.37
   7  0.750  0.750  0.000-  40 2.37  47 2.37  55 2.37  64 2.37
   8  0.750  0.750  0.500-  39 2.37  48 2.37  56 2.37  63 2.37
   9  0.250  0.000  0.250-  33 2.37  43 2.37  49 2.37  59 2.37
  10  0.250  0.000  0.750-  34 2.37  44 2.37  50 2.37  60 2.37
  11  0.250  0.500  0.250-  35 2.37  41 2.37  51 2.37  57 2.37
  12  0.250  0.500  0.750-  36 2.37  42 2.37  52 2.37  58 2.37
  13  0.750  0.000  0.250-  37 2.37  47 2.37  53 2.37  63 2.37
  14  0.750  0.000  0.750-  38 2.37  48 2.37  54 2.37  64 2.37
  15  0.750  0.500  0.250-  39 2.37  45 2.37  55 2.37  61 2.37
  16  0.750  0.500  0.750-  40 2.37  46 2.37  56 2.37  62 2.37
  17  0.000  0.250  0.250-  33 2.37  41 2.37  53 2.37  61 2.37
  18  0.000  0.250  0.750-  34 2.37  42 2.37  54 2.37  62 2.37
  19  0.000  0.750  0.250-  35 2.37  43 2.37  55 2.37  63 2.37
  20  0.000  0.750  0.750-  36 2.37  44 2.37  56 2.37  64 2.37
  21  0.500  0.250  0.250-  37 2.37  45 2.37  49 2.37  57 2.37
  22  0.500  0.250  0.750-  38 2.37  46 2.37  50 2.37  58 2.37
  23  0.500  0.750  0.250-  39 2.37  47 2.37  51 2.37  59 2.37
  24  0.500  0.750  0.750-  40 2.37  48 2.37  52 2.37  60 2.37
  25  0.000  0.000  0.000-  34 2.37  43 2.37  53 2.37  64 2.37
  26  0.000  0.000  0.500-  33 2.37  44 2.37  54 2.37  63 2.37
  27  0.000  0.500  0.000-  36 2.37  41 2.37  55 2.37  62 2.37
  28  0.000  0.500  0.500-  35 2.37  42 2.37  56 2.37  61 2.37
  29  0.500  0.000  0.000-  38 2.37  47 2.37  49 2.37  60 2.37
  30  0.500  0.000  0.500-  37 2.37  48 2.37  50 2.37  59 2.37
  31  0.500  0.500  0.000-  40 2.37  45 2.37  51 2.37  58 2.37
  32  0.500  0.500  0.500-  39 2.37  46 2.37  52 2.37  57 2.37
  33  0.125  0.125  0.375-   2 2.37   9 2.37  17 2.37  26 2.37
  34  0.125  0.125  0.875-   1 2.37  10 2.37  18 2.37  25 2.37
  35  0.125  0.625  0.375-   4 2.37  11 2.37  19 2.37  28 2.37
  36  0.125  0.625  0.875-   3 2.37  12 2.37  20 2.37  27 2.37
  37  0.625  0.125  0.375-   6 2.37  13 2.37  21 2.37  30 2.37
  38  0.625  0.125  0.875-   5 2.37  14 2.37  22 2.37  29 2.37
  39  0.625  0.625  0.375-   8 2.37  15 2.37  23 2.37  32 2.37
  40  0.625  0.625  0.875-   7 2.37  16 2.37  24 2.37  31 2.37
  41  0.125  0.375  0.125-   1 2.37  11 2.37  17 2.37  27 2.37
  42  0.125  0.375  0.625-   2 2.37  12 2.37  18 2.37  28 2.37
  43  0.125  0.875  0.125-   3 2.37   9 2.37  19 2.37  25 2.37
  44  0.125  0.875  0.625-   4 2.37  10 2.37  20 2.37  26 2.37
  45  0.625  0.375  0.125-   5 2.37  15 2.37  21 2.37  31 2.37
  46  0.625  0.375  0.625-   6 2.37  16 2.37  22 2.37  32 2.37
  47  0.625  0.875  0.125-   7 2.37  13 2.37  23 2.37  29 2.37
  48  0.625  0.875  0.625-   8 2.37  14 2.37  24 2.37  30 2.37
  49  0.375  0.125  0.125-   1 2.37   9 2.37  21 2.37  29 2.37
  50  0.375  0.125  0.625-   2 2.37  10 2.37  22 2.37  30 2.37
  51  0.375  0.625  0.125-   3 2.37  11 2.37  23 2.37  31 2.37
  52  0.375  0.625  0.625-   4 2.37  12 2.37  24 2.37  32 2.37
  53  0.875  0.125  0.125-   5 2.37  13 2.37  17 2.37  25 2.37
  54  0.875  0.125  0.625-   6 2.37  14 2.37  18 2.37  26 2.37
  55  0.875  0.625  0.125-   7 2.37  15 2.37  19 2.37  27 2.37
  56  0.875  0.625  0.625-   8 2.37  16 2.37  20 2.37  28 2.37
  57  0.375  0.375  0.375-   2 2.37  11 2.37  21 2.37  32 2.37
  58  0.375  0.375  0.875-   1 2.37  12 2.37  22 2.37  31 2.37
  59  0.375  0.875  0.375-   4 2.37   9 2.37  23 2.37  30 2.37
  60  0.375  0.875  0.875-   3 2.37  10 2.37  24 2.37  29 2.37
  61  0.875  0.375  0.375-   6 2.37  15 2.37  17 2.37  28 2.37
  62  0.875  0.375  0.875-   5 2.37  16 2.37  18 2.37  27 2.37
  63  0.875  0.875  0.375-   8 2.37  13 2.37  19 2.37  26 2.37
  64  0.875  0.875  0.875-   7 2.37  14 2.37  20 2.37  25 2.37
 

IMPORTANT INFORMATION: All symmetrisations will be switched off!
NOSYMM: (Re-)initialisation of all symmetry stuff for point group C_1.

 
 
 KPOINTS: Gamma-point only                        

Automatic generation of k-mesh.
Space group operators:
 irot       det(A)        alpha          n_x          n_y          n_z        tau_x        tau_y        tau_z
    1     1.000000     0.000000     1.000000     0.000000     0.000000     0.000000     0.000000     0.000000
 
 Subroutine IBZKPT returns following result:
 ===========================================
 
 Found      1 irreducible k-points:
 
 Following reciprocal coordinates:
            Coordinates               Weight
  0.000000  0.000000  0.000000      1.000000
 
 Following cartesian coordinates:
            Coordinates               Weight
  0.000000  0.000000  0.000000      1.000000
 


--------------------------------------------------------------------------------------------------------




 Dimension of arrays:
   k-points           NKPTS =      1   k-points in BZ     NKDIM =      1   number of bands    NBANDS=    168
   number of dos      NEDOS =    301   number of ions     NIONS =     64
   non local maximal  LDIM  =      4   non local SUM 2l+1 LMDIM =      8
   total plane-waves  NPLWV =  46656
   max r-space proj   IRMAX =    484   max aug-charges    IRDMAX=    553
   dimension x,y,z NGX =    36 NGY =   36 NGZ =   36
   dimension x,y,z NGXF=    48 NGYF=   48 NGZF=   48
   support grid    NGXF=    48 NGYF=   48 NGZF=   48
   ions per type =              64
   NGX,Y,Z   is equivalent  to a cutoff of   5.47,  5.47,  5.47 a.u.
   NGXF,Y,Z  is equivalent  to a cutoff of   7.30,  7.30,  7.30 a.u.

 SYSTEM =  Si_2x2x2                                
 POSCAR =  Si_2x2x2                                

 Startparameter for this run:
   NWRITE =      2    write-flag & timer
   PREC   = low       normal or accurate (medium, high low for compatibility)
   ISTART =      1    job   : 0-new  1-cont  2-samecut
   ICHARG =      0    charge: 1-file 2-atom 10-const
   ISPIN  =      1    spin polarized calculation?
   LNONCOLLINEAR =      F non collinear calculations
   LSORBIT =      F    spin-orbit coupling
   INIWAV =      1    electr: 0-lowe 1-rand  2-diag
   LASPH  =      F    aspherical Exc in radial PAW
   METAGGA=      F    non-selfconsistent MetaGGA calc.

 Electronic Relaxation 1
   ENCUT  =  184.0 eV  13.52 Ry    3.68 a.u.  12.10 12.10 12.10*2*pi/ulx,y,z
   ENINI  =  184.0     initial cutoff
   ENAUG  =  322.1 eV  augmentation charge cutoff
   NELM   =     60;   NELMIN=  2; NELMDL=  0     # of ELM steps 
   EDIFF  = 0.1E-03   stopping-criterion for ELM
   LREAL  =      T    real-space projection
   NLSPLINE    = F    spline interpolate recip. space projectors
   LCOMPAT=      F    compatible to vasp.4.4
   GGA_COMPAT  = T    GGA compatible to vasp.4.4-vasp.4.6
   LMAXPAW     = -100 max onsite density
   LMAXMIX     =    2 max onsite mixed and CHGCAR
   VOSKOWN=      0    Vosko Wilk Nusair interpolation
   ROPT   =   -0.01000
 Ionic relaxation
   EDIFFG = 0.1E-02   stopping-criterion for IOM
   NSW    =     30    number of steps for IOM
   NBLOCK =      1;   KBLOCK =     30    inner block; outer block 
   IBRION =      0    ionic relax: 0-MD 1-quasi-New 2-CG
   NFREE  =      0    steps in history (QN), initial steepest desc. (CG)
   ISIF   =      2    stress and relaxation
   IWAVPR =     12    prediction:  0-non 1-charg 2-wave 3-comb
   ISYM   =      0    0-nonsym 1-usesym 2-fastsym
   LCORR  =      T    Harris-Foulkes like correction to forces

   POTIM  = 3.0000    time-step for ionic-motion
   TEIN   = 2000.0    initial temperature
   TEBEG  = 2000.0;   TEEND  =2000.0 temperature during run
   SMASS  =   1.00    Nose mass-parameter (am)
   estimated Nose-frequenzy (Omega)   =  0.72E+14 period in steps = 28.89 mass=   0.911E-27a.u.
   SCALEE = 1.0000    scale energy and forces
   NPACO  =    256;   APACO  = 16.0  distance and # of slots for P.C.
   PSTRESS=    0.0 pullay stress

  Mass of Ions in am
   POMASS =  28.09
  Ionic Valenz
   ZVAL   =   4.00
  Atomic Wigner-Seitz radii
   RWIGS  =  -1.00
  virtual crystal weights 
   VCA    =   1.00
   NELECT =     256.0000    total number of electrons
   NUPDOWN=      -1.0000    fix difference up-down

 DOS related values:
   EMIN   =  10.00;   EMAX   =-10.00  energy-range for DOS
   EFERMI =   0.00
   ISMEAR =     0;   SIGMA  =   0.10  broadening in eV -4-tet -1-fermi 0-gaus

 Electronic relaxation 2 (details)
   IALGO  =     48    algorithm
   LDIAG  =      T    sub-space diagonalisation (order eigenvalues)
   LSUBROT=      F    optimize rotation matrix (better conditioning)
   TURBO    =      0    0=normal 1=particle mesh
   IRESTART =      0    0=no restart 2=restart with 2 vectors
   NREBOOT  =      0    no. of reboots
   NMIN     =      0    reboot dimension
   EREF     =   0.00    reference energy to select bands
   IMIX   =      4    mixing-type and parameters
     AMIX     =   0.40;   BMIX     =  1.00
     AMIX_MAG =   1.60;   BMIX_MAG =  1.00
     AMIN     =   0.10
     WC   =   100.;   INIMIX=   1;  MIXPRE=   1;  MAXMIX= -45

 Intra band minimization:
   WEIMIN = 0.0010     energy-eigenvalue tresh-hold
   EBREAK =  0.15E-06  absolut break condition
   DEPER  =   0.30     relativ break condition  

   TIME   =   0.40     timestep for ELM

  volume/ion in A,a.u.               =      20.44       137.96
  Fermi-wavevector in a.u.,A,eV,Ry     =   0.950397  1.795991 12.289531  0.903255
  Thomas-Fermi vector in A             =   2.078770
 
 Write flags
   LWAVE        =      T    write WAVECAR
   LDOWNSAMPLE  =      F    k-point downsampling of WAVECAR
   LCHARG       =      T    write CHGCAR
   LVTOT        =      F    write LOCPOT, total local potential
   LVHAR        =      F    write LOCPOT, Hartree potential only
   LELF         =      F    write electronic localiz. function (ELF)
   LORBIT       =      0    0 simple, 1 ext, 2 COOP (PROOUT), +10 PAW based schemes


 Dipole corrections
   LMONO  =      F    monopole corrections only (constant potential shift)
   LDIPOL =      F    correct potential (dipole corrections)
   IDIPOL =      0    1-x, 2-y, 3-z, 4-all directions 
   EPSILON=  1.0000000 bulk dielectric constant

 Exchange correlation treatment:
   GGA     =    --    GGA type
   LEXCH   =     8    internal setting for exchange type
   VOSKOWN=      0    Vosko Wilk Nusair interpolation
   LHFCALC =     F    Hartree Fock is set to
   LHFONE  =     F    Hartree Fock one center treatment
   AEXX    =    0.0000 exact exchange contribution

 Linear response parameters
   LEPSILON=     F    determine dielectric tensor
   LRPA    =     F    only Hartree local field effects (RPA)
   LNABLA  =     F    use nabla operator in PAW spheres
   LVEL    =     F    velocity operator in full k-point grid
   LINTERFAST=   F  fast interpolation
   KINTER  =     0    interpolate to denser k-point grid
   CSHIFT  =0.1000    complex shift for real part using Kramers Kronig
   OMEGAMAX=  -1.0    maximum frequency
   DEG_THRESHOLD= 0.2000000E-02 threshold for treating states as degnerate
   RTIME   =   -0.100 relaxation time in fs
  (WPLASMAI=    0.000 imaginary part of plasma frequency in eV, 0.658/RTIME)
   DFIELD  = 0.0000000 0.0000000 0.0000000 field for delta impulse in time
 
 Orbital magnetization related:
   ORBITALMAG=     F  switch on orbital magnetization
   LCHIMAG   =     F  perturbation theory with respect to B field
   DQ        =  0.001000  dq finite difference perturbation B field
   LLRAUG    =     F  two centre corrections for induced B field



--------------------------------------------------------------------------------------------------------


 molecular dynamics for ions
   using nose mass (canonical ensemble)
 charge density and potential will be updated during run
 non-spin polarized calculation
 RMM-DIIS sequential band-by-band
 perform sub-space diagonalisation
    before iterative eigenvector-optimisation
 modified Broyden-mixing scheme, WC =      100.0
 initial mixing is a Kerker type mixing with AMIX =  0.4000 and BMIX =      1.0000
 Hartree-type preconditioning will be used
 using additional bands           40
 real space projection scheme for non local part
 use partial core corrections
 calculate Harris-corrections to forces 
   (improved forces if not selfconsistent)
 use gradient corrections 
 use of overlap-Matrix (Vanderbilt PP)
 Gauss-broadening in eV      SIGMA  =   0.10


--------------------------------------------------------------------------------------------------------


  energy-cutoff  :      184.01
  volume of cell :     1308.43
      direct lattice vectors                 reciprocal lattice vectors
    10.937455177  0.000000000  0.000000000     0.091428946  0.000000000  0.000000000
     0.000000000 10.937455177  0.000000000     0.000000000  0.091428946  0.000000000
     0.000000000  0.000000000 10.937455177     0.000000000  0.000000000  0.091428946

  length of vectors
    10.937455177 10.937455177 10.937455177     0.091428946  0.091428946  0.091428946


 
 old parameters found on file WAVECAR:
  energy-cutoff  :      184.01
  volume of cell :      163.55
      direct lattice vectors                 reciprocal lattice vectors
     5.468727589  0.000000000  0.000000000     0.182857892  0.000000000  0.000000000
     0.000000000  5.468727589  0.000000000     0.000000000  0.182857892  0.000000000
     0.000000000  0.000000000  5.468727589     0.000000000  0.000000000  0.182857892

  length of vectors

 
 k-points in units of 2pi/SCALE and weight: Gamma-point only                        
   0.00000000  0.00000000  0.00000000       1.000
 
 k-points in reciprocal lattice and weights: Gamma-point only                        
   0.00000000  0.00000000  0.00000000       1.000
 
 position of ions in fractional coordinates (direct lattice) 
   0.25000000  0.25000000  0.00000000
   0.25000000  0.25000000  0.50000000
   0.25000000  0.75000000  0.00000000
   0.25000000  0.75000000  0.50000000
   0.75000000  0.25000000  0.00000000
   0.75000000  0.25000000  0.50000000
   0.75000000  0.75000000  0.00000000
   0.75000000  0.75000000  0.50000000
   0.25000000  0.00000000  0.25000000
   0.25000000  0.00000000  0.75000000
   0.25000000  0.50000000  0.25000000
   0.25000000  0.50000000  0.75000000
   0.75000000  0.00000000  0.25000000
   0.75000000  0.00000000  0.75000000
   0.75000000  0.50000000  0.25000000
   0.75000000  0.50000000  0.75000000
   0.00000000  0.25000000  0.25000000
   0.00000000  0.25000000  0.75000000
   0.00000000  0.75000000  0.25000000
   0.00000000  0.75000000  0.75000000
   0.50000000  0.25000000  0.25000000
   0.50000000  0.25000000  0.75000000
   0.50000000  0.75000000  0.25000000
   0.50000000  0.75000000  0.75000000
   0.00000000  0.00000000  0.00000000
   0.00000000  0.00000000  0.50000000
   0.00000000  0.50000000  0.00000000
   0.00000000  0.50000000  0.50000000
   0.50000000  0.00000000  0.00000000
   0.50000000  0.00000000  0.50000000
   0.50000000  0.50000000  0.00000000
   0.50000000  0.50000000  0.50000000
   0.12500000  0.12500000  0.37500000
   0.12500000  0.12500000  0.87500000
   0.12500000  0.62500000  0.37500000
   0.12500000  0.62500000  0.87500000
   0.62500000  0.12500000  0.37500000
   0.62500000  0.12500000  0.87500000
   0.62500000  0.62500000  0.37500000
   0.62500000  0.62500000  0.87500000
   0.12500000  0.37500000  0.12500000
   0.12500000  0.37500000  0.62500000
   0.12500000  0.87500000  0.12500000
   0.12500000  0.87500000  0.62500000
   0.62500000  0.37500000  0.12500000
   0.62500000  0.37500000  0.62500000
   0.62500000  0.87500000  0.12500000
   0.62500000  0.87500000  0.62500000
   0.37500000  0.12500000  0.12500000
   0.37500000  0.12500000  0.62500000
   0.37500000  0.62500000  0.12500000
   0.37500000  0.62500000  0.62500000
   0.87500000  0.12500000  0.12500000
   0.87500000  0.12500000  0.62500000
   0.87500000  0.62500000  0.12500000
   0.87500000  0.62500000  0.62500000
   0.37500000  0.37500000  0.37500000
   0.37500000  0.37500000  0.87500000
   0.37500000  0.87500000  0.37500000
   0.37500000  0.87500000  0.87500000
   0.87500000  0.37500000  0.37500000
   0.87500000  0.37500000  0.87500000
   0.87500000  0.87500000  0.37500000
   0.87500000  0.87500000  0.87500000
 
 position of ions in cartesian coordinates  (Angst):
   2.73436379  2.73436379  0.00000000
   2.73436379  2.73436379  5.46872759
   2.73436379  8.20309138  0.00000000
   2.73436379  8.20309138  5.46872759
   8.20309138  2.73436379  0.00000000
   8.20309138  2.73436379  5.46872759
   8.20309138  8.20309138  0.00000000
   8.20309138  8.20309138  5.46872759
   2.73436379  0.00000000  2.73436379
   2.73436379  0.00000000  8.20309138
   2.73436379  5.46872759  2.73436379
   2.73436379  5.46872759  8.20309138
   8.20309138  0.00000000  2.73436379
   8.20309138  0.00000000  8.20309138
   8.20309138  5.46872759  2.73436379
   8.20309138  5.46872759  8.20309138
   0.00000000  2.73436379  2.73436379
   0.00000000  2.73436379  8.20309138
   0.00000000  8.20309138  2.73436379
   0.00000000  8.20309138  8.20309138
   5.46872759  2.73436379  2.73436379
   5.46872759  2.73436379  8.20309138
   5.46872759  8.20309138  2.73436379
   5.46872759  8.20309138  8.20309138
   0.00000000  0.00000000  0.00000000
   0.00000000  0.00000000  5.46872759
   0.00000000  5.46872759  0.00000000
   0.00000000  5.46872759  5.46872759
   5.46872759  0.00000000  0.00000000
   5.46872759  0.00000000  5.46872759
   5.46872759  5.46872759  0.00000000
   5.46872759  5.46872759  5.46872759
   1.36718190  1.36718190  4.10154569
   1.36718190  1.36718190  9.57027328
   1.36718190  6.83590949  4.10154569
   1.36718190  6.83590949  9.57027328
   6.83590949  1.36718190  4.10154569
   6.83590949  1.36718190  9.57027328
   6.83590949  6.83590949  4.10154569
   6.83590949  6.83590949  9.57027328
   1.36718190  4.10154569  1.36718190
   1.36718190  4.10154569  6.83590949
   1.36718190  9.57027328  1.36718190
   1.36718190  9.57027328  6.83590949
   6.83590949  4.10154569  1.36718190
   6.83590949  4.10154569  6.83590949
   6.83590949  9.57027328  1.36718190
   6.83590949  9.57027328  6.83590949
   4.10154569  1.36718190  1.36718190
   4.10154569  1.36718190  6.83590949
   4.10154569  6.83590949  1.36718190
   4.10154569  6.83590949  6.83590949
   9.57027328  1.36718190  1.36718190
   9.57027328  1.36718190  6.83590949
   9.57027328  6.83590949  1.36718190
   9.57027328  6.83590949  6.83590949
   4.10154569  4.10154569  4.10154569
   4.10154569  4.10154569  9.57027328
   4.10154569  9.57027328  4.10154569
   4.10154569  9.57027328  9.57027328
   9.57027328  4.10154569  4.10154569
   9.57027328  4.10154569  9.57027328
   9.57027328  9.57027328  4.10154569
   9.57027328  9.57027328  9.57027328
 


--------------------------------------------------------------------------------------------------------


 use serial FFT for orbitals x direction half grid
 k-point  1 :   0.0000 0.0000 0.0000  plane waves:    3721

 maximum and minimum number of plane-waves per node :      3721     3721

 maximum number of plane-waves:      3721
 maximum index in each direction: 
   IXMAX=   12   IYMAX=   12   IZMAX=   12
   IXMIN=    0   IYMIN=  -12   IZMIN=  -12


 serial   3D FFT for wavefunctions
 parallel 3D FFT for charge:
    minimum data exchange during FFTs selected (reduces bandwidth)


 total amount of memory used by VASP MPI-rank0    34994. kBytes
=======================================================================

   base      :      30000. kBytes
   nonlr-proj:       1957. kBytes
   fftplans  :        377. kBytes
   grid      :       2114. kBytes
   one-center:         98. kBytes
   wavefun   :        448. kBytes
 
     INWAV:  cpu time    0.1059: real time    0.1067
 Broyden mixing: mesh for mixing (old mesh)
   NGX = 25   NGY = 25   NGZ = 25
  (NGX  = 48   NGY  = 48   NGZ  = 48)
  gives a total of  15625 points

 charge density for first step will be calculated from the start-wavefunctions


--------------------------------------------------------------------------------------------------------


 Maximum index for non-local projection operator          437
 Maximum index for augmentation-charges           61 (set IRDMAX)


--------------------------------------------------------------------------------------------------------


 initial charge from wavefunction
 First call to EWALD:  gamma=   0.162
 Maximum number of real-space cells 3x 3x 3
 Maximum number of reciprocal cells 3x 3x 3

    FEWALD:  cpu time    0.0133: real time    0.0203


--------------------------------------- Iteration      1(   1)  ---------------------------------------


    POTLOK:  cpu time    0.0100: real time    0.0786
    SETDIJ:  cpu time    0.0052: real time    0.0062
    EDDIAG:  cpu time    0.0724: real time    0.0740
  RMM-DIIS:  cpu time    0.0542: real time    0.0543
    ORTHCH:  cpu time    0.0068: real time    0.0068
       DOS:  cpu time    0.0008: real time    0.0009
    CHARGE:  cpu time    0.0164: real time    0.0164
    MIXING:  cpu time    0.0007: real time    0.0009
    --------------------------------------------
      LOOP:  cpu time    0.1665: real time    0.2382

 eigenvalue-minimisations  :   368
 total energy-change (2. order) : 0.6941509E+03  (-0.1688124E+03)
 number of electron     255.9979854 magnetization 
 augmentation part      -12.4076372 magnetization 

 Broyden mixing:
  rms(total) = 0.12219E+02    rms(broyden)= 0.10533E+02
  rms(prec ) = 0.13425E+02
  weight for this iteration     100.00
  WARNING: grid for Broyden might be to small

 Free energy of the ion-electron system (eV)
  ---------------------------------------------------
  alpha Z        PSCENC =       105.38179549
  Ewald energy   TEWEN  =     -7262.23861673
  -Hartree energ DENC   =       -53.00686005
  -exchange      EXHF   =         0.00000000
  -V(xc)+E(xc)   XCENC  =     -1135.46690380
  PAW double counting   =      3595.95980869    -2426.83536614
  entropy T*S    EENTRO =        -0.00297313
  eigenvalues    EBANDS =      1274.90553361
  atomic energy  EATOM  =      6595.45443641
  Solvation  Ediel_sol  =         0.00000000
  ---------------------------------------------------
  free energy    TOTEN  =       694.15085435 eV

  energy without entropy =      694.15382748  energy(sigma->0) =      694.15234092


--------------------------------------------------------------------------------------------------------




--------------------------------------- Iteration      1(   2)  ---------------------------------------


    POTLOK:  cpu time    0.0072: real time    0.0072
    SETDIJ:  cpu time    0.0036: real time    0.0036
    EDDIAG:  cpu time    0.0190: real time    0.0191
  RMM-DIIS:  cpu time    0.0855: real time    0.0857
    ORTHCH:  cpu time    0.0035: real time    0.0035
       DOS:  cpu time    0.0003: real time    0.0003
    CHARGE:  cpu time    0.0048: real time    0.0048
    MIXING:  cpu time    0.0004: real time    0.0005
    --------------------------------------------
      LOOP:  cpu time    0.1242: real time    0.1247

 eigenvalue-minimisations  :   584
 total energy-change (2. order) :-0.8294144E+03  (-0.7248624E+03)
 number of electron     255.9973356 magnetization 
 augmentation part      -16.4092303 magnetization 

 Broyden mixing:
  rms(total) = 0.52082E+01    rms(broyden)= 0.52080E+01
  rms(prec ) = 0.11081E+02
  weight for this iteration     100.00

 eigenvalues of (default mixing * dielectric matrix)
  average eigenvalue GAMMA=   0.8194
  0.8194

 Free energy of the ion-electron system (eV)
  ---------------------------------------------------
  alpha Z        PSCENC =       105.38179549
  Ewald energy   TEWEN  =     -7262.23861673
  -Hartree energ DENC   =       -41.75621959
  -exchange      EXHF   =         0.00000000
  -V(xc)+E(xc)   XCENC  =      -630.77460657
  PAW double counting   =     30405.56579040   -29244.58384793
  entropy T*S    EENTRO =        -0.10549557
  eigenvalues    EBANDS =       -62.20677590
  atomic energy  EATOM  =      6595.45443641
  Solvation  Ediel_sol  =         0.00000000
  ---------------------------------------------------
  free energy    TOTEN  =      -135.26354000 eV

  energy without entropy =     -135.15804443  energy(sigma->0) =     -135.21079222


--------------------------------------------------------------------------------------------------------




--------------------------------------- Iteration      1(   3)  ---------------------------------------


    POTLOK:  cpu time    0.0036: real time    0.0036
    SETDIJ:  cpu time    0.0025: real time    0.0025
    EDDIAG:  cpu time    0.0186: real time    0.0186
  RMM-DIIS:  cpu time    0.0829: real time    0.0831
    ORTHCH:  cpu time    0.0034: real time    0.0034
       DOS:  cpu time    0.0003: real time    0.0003
    CHARGE:  cpu time    0.0050: real time    0.0050
    MIXING:  cpu time    0.0004: real time    0.0004
    --------------------------------------------
      LOOP:  cpu time    0.1166: real time    0.1170

 eigenvalue-minimisations  :   553
 total energy-change (2. order) :-0.1369416E+02  (-0.2262573E+03)
 number of electron     255.9971582 magnetization 
 augmentation part      -17.5020296 magnetization 

 Broyden mixing:
  rms(total) = 0.44517E+01    rms(broyden)= 0.44515E+01
  rms(prec ) = 0.76978E+01
  weight for this iteration     100.00

 eigenvalues of (default mixing * dielectric matrix)
  average eigenvalue GAMMA=   1.0702
  1.0702  1.0702

 Free energy of the ion-electron system (eV)
  ---------------------------------------------------
  alpha Z        PSCENC =       105.38179549
  Ewald energy   TEWEN  =     -7262.23861673
  -Hartree energ DENC   =       -78.96883287
  -exchange      EXHF   =         0.00000000
  -V(xc)+E(xc)   XCENC  =      -624.19950621
  PAW double counting   =     31799.76992007   -30648.99947886
  entropy T*S    EENTRO =        -0.10288160
  eigenvalues    EBANDS =       -35.05453757
  atomic energy  EATOM  =      6595.45443641
  Solvation  Ediel_sol  =         0.00000000
  ---------------------------------------------------
  free energy    TOTEN  =      -148.95770188 eV

  energy without entropy =     -148.85482028  energy(sigma->0) =     -148.90626108


--------------------------------------------------------------------------------------------------------




--------------------------------------- Iteration      1(   4)  ---------------------------------------


    POTLOK:  cpu time    0.0035: real time    0.0035
    SETDIJ:  cpu time    0.0025: real time    0.0025
    EDDIAG:  cpu time    0.0184: real time    0.0184
  RMM-DIIS:  cpu time    0.0796: real time    0.0798
    ORTHCH:  cpu time    0.0033: real time    0.0034
       DOS:  cpu time    0.0003: real time    0.0003
    CHARGE:  cpu time    0.0046: real time    0.0046
    MIXING:  cpu time    0.0004: real time    0.0005
    --------------------------------------------
      LOOP:  cpu time    0.1125: real time    0.1129

 eigenvalue-minimisations  :   529
 total energy-change (2. order) :-0.2430120E+02  (-0.1553602E+03)
 number of electron     255.9973427 magnetization 
 augmentation part      -16.3657238 magnetization 

 Broyden mixing:
  rms(total) = 0.23928E+01    rms(broyden)= 0.23926E+01
  rms(prec ) = 0.33066E+01
  weight for this iteration     100.00

 eigenvalues of (default mixing * dielectric matrix)
  average eigenvalue GAMMA=   1.1980
  1.4093  1.4093  0.7756

 Free energy of the ion-electron system (eV)
  ---------------------------------------------------
  alpha Z        PSCENC =       105.38179549
  Ewald energy   TEWEN  =     -7262.23861673
  -Hartree energ DENC   =      -211.49076785
  -exchange      EXHF   =         0.00000000
  -V(xc)+E(xc)   XCENC  =      -609.43420744
  PAW double counting   =     25198.72150975   -24064.72748666
  entropy T*S    EENTRO =        -0.07365975
  eigenvalues    EBANDS =        75.14809725
  atomic energy  EATOM  =      6595.45443641
  Solvation  Ediel_sol  =         0.00000000
  ---------------------------------------------------
  free energy    TOTEN  =      -173.25889955 eV

  energy without entropy =     -173.18523980  energy(sigma->0) =     -173.22206967


--------------------------------------------------------------------------------------------------------




--------------------------------------- Iteration      1(   5)  ---------------------------------------


    POTLOK:  cpu time    0.0035: real time    0.0035
    SETDIJ:  cpu time    0.0025: real time    0.0025
    EDDIAG:  cpu time    0.0183: real time    0.0184
  RMM-DIIS:  cpu time    0.0790: real time    0.0792
    ORTHCH:  cpu time    0.0033: real time    0.0033
       DOS:  cpu time    0.0003: real time    0.0003
    CHARGE:  cpu time    0.0045: real time    0.0045
    MIXING:  cpu time    0.0004: real time    0.0004
    --------------------------------------------
      LOOP:  cpu time    0.1119: real time    0.1121

 eigenvalue-minimisations  :   528
 total energy-change (2. order) :-0.6287768E+02  (-0.7481075E+02)
 number of electron     255.9974372 magnetization 
 augmentation part      -15.7835359 magnetization 

 Broyden mixing:
  rms(total) = 0.16859E+01    rms(broyden)= 0.16858E+01
  rms(prec ) = 0.23887E+01
  weight for this iteration     100.00

 eigenvalues of (default mixing * dielectric matrix)
  average eigenvalue GAMMA=   1.2926
  1.0890  1.0890  1.7563  1.2361

 Free energy of the ion-electron system (eV)
  ---------------------------------------------------
  alpha Z        PSCENC =       105.38179549
  Ewald energy   TEWEN  =     -7262.23861673
  -Hartree energ DENC   =      -281.08972209
  -exchange      EXHF   =         0.00000000
  -V(xc)+E(xc)   XCENC  =      -601.31403182
  PAW double counting   =     26876.06080603   -25747.68652320
  entropy T*S    EENTRO =        -0.06047897
  eigenvalues    EBANDS =        79.35575567
  atomic energy  EATOM  =      6595.45443641
  Solvation  Ediel_sol  =         0.00000000
  ---------------------------------------------------
  free energy    TOTEN  =      -236.13657922 eV

  energy without entropy =     -236.07610025  energy(sigma->0) =     -236.10633973


--------------------------------------------------------------------------------------------------------




--------------------------------------- Iteration      1(   6)  ---------------------------------------


    POTLOK:  cpu time    0.0034: real time    0.0034
    SETDIJ:  cpu time    0.0025: real time    0.0025
    EDDIAG:  cpu time    0.0183: real time    0.0183
  RMM-DIIS:  cpu time    0.0721: real time    0.0722
    ORTHCH:  cpu time    0.0033: real time    0.0033
       DOS:  cpu time    0.0003: real time    0.0003
    CHARGE:  cpu time    0.0045: real time    0.0046
    MIXING:  cpu time    0.0004: real time    0.0004
    --------------------------------------------
      LOOP:  cpu time    0.1048: real time    0.1051

 eigenvalue-minimisations  :   493
 total energy-change (2. order) :-0.3332365E+02  (-0.4398860E+02)
 number of electron     255.9975583 magnetization 
 augmentation part      -15.0379490 magnetization 

 Broyden mixing:
  rms(total) = 0.88531E+00    rms(broyden)= 0.88521E+00
  rms(prec ) = 0.16527E+01
  weight for this iteration     100.00

 eigenvalues of (default mixing * dielectric matrix)
  average eigenvalue GAMMA=   1.3548
  2.6209  1.2118  1.2118  0.7609  0.9685

 Free energy of the ion-electron system (eV)
  ---------------------------------------------------
  alpha Z        PSCENC =       105.38179549
  Ewald energy   TEWEN  =     -7262.23861673
  -Hartree energ DENC   =      -366.81512351
  -exchange      EXHF   =         0.00000000
  -V(xc)+E(xc)   XCENC  =      -591.10568669
  PAW double counting   =     31177.62993499   -30054.38458061
  entropy T*S    EENTRO =        -0.20237206
  eigenvalues    EBANDS =       126.81998461
  atomic energy  EATOM  =      6595.45443641
  Solvation  Ediel_sol  =         0.00000000
  ---------------------------------------------------
  free energy    TOTEN  =      -269.46022811 eV

  energy without entropy =     -269.25785605  energy(sigma->0) =     -269.35904208


--------------------------------------------------------------------------------------------------------




--------------------------------------- Iteration      1(   7)  ---------------------------------------


    POTLOK:  cpu time    0.0034: real time    0.0034
    SETDIJ:  cpu time    0.0025: real time    0.0025
    EDDIAG:  cpu time    0.0182: real time    0.0183
  RMM-DIIS:  cpu time    0.0723: real time    0.0725
    ORTHCH:  cpu time    0.0033: real time    0.0033
       DOS:  cpu time    0.0003: real time    0.0003
    CHARGE:  cpu time    0.0047: real time    0.0047
    MIXING:  cpu time    0.0004: real time    0.0004
    --------------------------------------------
      LOOP:  cpu time    0.1052: real time    0.1055

 eigenvalue-minimisations  :   492
 total energy-change (2. order) :-0.1790509E+02  (-0.2103470E+02)
 number of electron     255.9976648 magnetization 
 augmentation part      -14.3821501 magnetization 

 Broyden mixing:
  rms(total) = 0.61280E+00    rms(broyden)= 0.61272E+00
  rms(prec ) = 0.80576E+00
  weight for this iteration     100.00

 eigenvalues of (default mixing * dielectric matrix)
  average eigenvalue GAMMA=   1.3203
  2.7490  1.3153  1.3153  0.8388  0.8517  0.8517

 Free energy of the ion-electron system (eV)
  ---------------------------------------------------
  alpha Z        PSCENC =       105.38179549
  Ewald energy   TEWEN  =     -7262.23861673
  -Hartree energ DENC   =      -457.01177411
  -exchange      EXHF   =         0.00000000
  -V(xc)+E(xc)   XCENC  =      -580.82512031
  PAW double counting   =     33405.15789209   -32287.39807260
  entropy T*S    EENTRO =        -0.12536731
  eigenvalues    EBANDS =       194.23951103
  atomic energy  EATOM  =      6595.45443641
  Solvation  Ediel_sol  =         0.00000000
  ---------------------------------------------------
  free energy    TOTEN  =      -287.36531603 eV

  energy without entropy =     -287.23994872  energy(sigma->0) =     -287.30263238


--------------------------------------------------------------------------------------------------------




--------------------------------------- Iteration      1(   8)  ---------------------------------------


    POTLOK:  cpu time    0.0034: real time    0.0034
    SETDIJ:  cpu time    0.0025: real time    0.0025
    EDDIAG:  cpu time    0.0185: real time    0.0186
  RMM-DIIS:  cpu time    0.0778: real time    0.0780
    ORTHCH:  cpu time    0.0033: real time    0.0033
       DOS:  cpu time    0.0003: real time    0.0003
    CHARGE:  cpu time    0.0046: real time    0.0046
    MIXING:  cpu time    0.0005: real time    0.0005
    --------------------------------------------
      LOOP:  cpu time    0.1110: real time    0.1112

 eigenvalue-minimisations  :   534
 total energy-change (2. order) :-0.1193280E+02  (-0.9736061E+01)
 number of electron     255.9976778 magnetization 
 augmentation part      -14.3019336 magnetization 

 Broyden mixing:
  rms(total) = 0.52212E+00    rms(broyden)= 0.52207E+00
  rms(prec ) = 0.78626E+00
  weight for this iteration     100.00

 eigenvalues of (default mixing * dielectric matrix)
  average eigenvalue GAMMA=   1.3121
  3.0404  1.4238  1.4238  0.8737  0.8737  0.7748  0.7748

 Free energy of the ion-electron system (eV)
  ---------------------------------------------------
  alpha Z        PSCENC =       105.38179549
  Ewald energy   TEWEN  =     -7262.23861673
  -Hartree energ DENC   =      -464.25459324
  -exchange      EXHF   =         0.00000000
  -V(xc)+E(xc)   XCENC  =      -579.78503413
  PAW double counting   =     35330.08736022   -34212.21488085
  entropy T*S    EENTRO =        -0.24661992
  eigenvalues    EBANDS =       188.51803532
  atomic energy  EATOM  =      6595.45443641
  Solvation  Ediel_sol  =         0.00000000
  ---------------------------------------------------
  free energy    TOTEN  =      -299.29811743 eV

  energy without entropy =     -299.05149751  energy(sigma->0) =     -299.17480747


--------------------------------------------------------------------------------------------------------




--------------------------------------- Iteration      1(   9)  ---------------------------------------


    POTLOK:  cpu time    0.0034: real time    0.0034
    SETDIJ:  cpu time    0.0025: real time    0.0025
    EDDIAG:  cpu time    0.0182: real time    0.0182
  RMM-DIIS:  cpu time    0.0788: real time    0.0790
    ORTHCH:  cpu time    0.0033: real time    0.0033
       DOS:  cpu time    0.0003: real time    0.0003
    CHARGE:  cpu time    0.0046: real time    0.0046
    MIXING:  cpu time    0.0005: real time    0.0005
    --------------------------------------------
      LOOP:  cpu time    0.1117: real time    0.1120

 eigenvalue-minimisations  :   529
 total energy-change (2. order) :-0.6986260E+01  (-0.5373679E+01)
 number of electron     255.9976864 magnetization 
 augmentation part      -14.2488758 magnetization 

 Broyden mixing:
  rms(total) = 0.37759E+00    rms(broyden)= 0.37756E+00
  rms(prec ) = 0.61243E+00
  weight for this iteration     100.00

 eigenvalues of (default mixing * dielectric matrix)
  average eigenvalue GAMMA=   1.3111
  3.2846  1.4997  1.4997  0.9132  0.9132  0.7847  0.7969  0.7969

 Free energy of the ion-electron system (eV)
  ---------------------------------------------------
  alpha Z        PSCENC =       105.38179549
  Ewald energy   TEWEN  =     -7262.23861673
  -Hartree energ DENC   =      -471.07863450
  -exchange      EXHF   =         0.00000000
  -V(xc)+E(xc)   XCENC  =      -578.73313803
  PAW double counting   =     37551.86334793   -36433.73455941
  entropy T*S    EENTRO =        -0.27792160
  eigenvalues    EBANDS =       187.07891338
  atomic energy  EATOM  =      6595.45443641
  Solvation  Ediel_sol  =         0.00000000
  ---------------------------------------------------
  free energy    TOTEN  =      -306.28437707 eV

  energy without entropy =     -306.00645547  energy(sigma->0) =     -306.14541627


--------------------------------------------------------------------------------------------------------




--------------------------------------- Iteration      1(  10)  ---------------------------------------


    POTLOK:  cpu time    0.0034: real time    0.0034
    SETDIJ:  cpu time    0.0025: real time    0.0025
    EDDIAG:  cpu time    0.0182: real time    0.0183
  RMM-DIIS:  cpu time    0.0775: real time    0.0777
    ORTHCH:  cpu time    0.0034: real time    0.0034
       DOS:  cpu time    0.0003: real time    0.0003
    CHARGE:  cpu time    0.0047: real time    0.0047
    MIXING:  cpu time    0.0006: real time    0.0006
    --------------------------------------------
      LOOP:  cpu time    0.1106: real time    0.1109

 eigenvalue-minimisations  :   511
 total energy-change (2. order) :-0.4531296E+00  (-0.8476139E+00)
 number of electron     255.9976913 magnetization 
 augmentation part      -14.2189200 magnetization 

 Broyden mixing:
  rms(total) = 0.23619E+00    rms(broyden)= 0.23618E+00
  rms(prec ) = 0.35257E+00
  weight for this iteration     100.00

 eigenvalues of (default mixing * dielectric matrix)
  average eigenvalue GAMMA=   1.3147
  3.1862  1.5405  1.5405  1.0755  1.0755  0.9377  0.9377  0.7692  0.7692

 Free energy of the ion-electron system (eV)
  ---------------------------------------------------
  alpha Z        PSCENC =       105.38179549
  Ewald energy   TEWEN  =     -7262.23861673
  -Hartree energ DENC   =      -480.02164690
  -exchange      EXHF   =         0.00000000
  -V(xc)+E(xc)   XCENC  =      -577.51612279
  PAW double counting   =     39309.82327217   -38191.63364218
  entropy T*S    EENTRO =        -0.29655123
  eigenvalues    EBANDS =       194.30956905
  atomic energy  EATOM  =      6595.45443641
  Solvation  Ediel_sol  =         0.00000000
  ---------------------------------------------------
  free energy    TOTEN  =      -306.73750671 eV

  energy without entropy =     -306.44095548  energy(sigma->0) =     -306.58923110


--------------------------------------------------------------------------------------------------------




--------------------------------------- Iteration      1(  11)  ---------------------------------------


    POTLOK:  cpu time    0.0034: real time    0.0034
    SETDIJ:  cpu time    0.0025: real time    0.0025
    EDDIAG:  cpu time    0.0183: real time    0.0184
  RMM-DIIS:  cpu time    0.0789: real time    0.0791
    ORTHCH:  cpu time    0.0033: real time    0.0033
       DOS:  cpu time    0.0003: real time    0.0003
    CHARGE:  cpu time    0.0046: real time    0.0046
    MIXING:  cpu time    0.0006: real time    0.0006
    --------------------------------------------
      LOOP:  cpu time    0.1119: real time    0.1122

 eigenvalue-minimisations  :   511
 total energy-change (2. order) :-0.5753266E-01  (-0.1750731E+00)
 number of electron     255.9976907 magnetization 
 augmentation part      -14.2227551 magnetization 

 Broyden mixing:
  rms(total) = 0.90979E-01    rms(broyden)= 0.90959E-01
  rms(prec ) = 0.11715E+00
  weight for this iteration     100.00

 eigenvalues of (default mixing * dielectric matrix)
  average eigenvalue GAMMA=   1.3364
  3.2506  1.9985  1.3629  1.3629  0.9762  0.9762  0.9609  0.8354  0.8354  0.8051

 Free energy of the ion-electron system (eV)
  ---------------------------------------------------
  alpha Z        PSCENC =       105.38179549
  Ewald energy   TEWEN  =     -7262.23861673
  -Hartree energ DENC   =      -482.50885636
  -exchange      EXHF   =         0.00000000
  -V(xc)+E(xc)   XCENC  =      -577.04913925
  PAW double counting   =     40783.26076548   -39664.54168383
  entropy T*S    EENTRO =        -0.29977519
  eigenvalues    EBANDS =       195.74603461
  atomic energy  EATOM  =      6595.45443641
  Solvation  Ediel_sol  =         0.00000000
  ---------------------------------------------------
  free energy    TOTEN  =      -306.79503937 eV

  energy without entropy =     -306.49526418  energy(sigma->0) =     -306.64515178


--------------------------------------------------------------------------------------------------------




--------------------------------------- Iteration      1(  12)  ---------------------------------------


    POTLOK:  cpu time    0.0034: real time    0.0034
    SETDIJ:  cpu time    0.0025: real time    0.0025
    EDDIAG:  cpu time    0.0181: real time    0.0182
  RMM-DIIS:  cpu time    0.0787: real time    0.0789
    ORTHCH:  cpu time    0.0033: real time    0.0033
       DOS:  cpu time    0.0003: real time    0.0003
    CHARGE:  cpu time    0.0046: real time    0.0046
    MIXING:  cpu time    0.0007: real time    0.0007
    --------------------------------------------
      LOOP:  cpu time    0.1117: real time    0.1120

 eigenvalue-minimisations  :   535
 total energy-change (2. order) :-0.7546158E-01  (-0.6657180E-01)
 number of electron     255.9976904 magnetization 
 augmentation part      -14.2243314 magnetization 

 Broyden mixing:
  rms(total) = 0.65793E-01    rms(broyden)= 0.65784E-01
  rms(prec ) = 0.13828E+00
  weight for this iteration     100.00

 eigenvalues of (default mixing * dielectric matrix)
  average eigenvalue GAMMA=   1.2941
  3.2949  1.6720  1.4753  1.4753  1.0582  1.0582  0.8776  0.8776  0.8856  0.8541
  0.7064

 Free energy of the ion-electron system (eV)
  ---------------------------------------------------
  alpha Z        PSCENC =       105.38179549
  Ewald energy   TEWEN  =     -7262.23861673
  -Hartree energ DENC   =      -484.12153206
  -exchange      EXHF   =         0.00000000
  -V(xc)+E(xc)   XCENC  =      -576.79842321
  PAW double counting   =     41284.27748406   -40165.31186599
  entropy T*S    EENTRO =        -0.30121551
  eigenvalues    EBANDS =       196.78743659
  atomic energy  EATOM  =      6595.45443641
  Solvation  Ediel_sol  =         0.00000000
  ---------------------------------------------------
  free energy    TOTEN  =      -306.87050096 eV

  energy without entropy =     -306.56928544  energy(sigma->0) =     -306.71989320


--------------------------------------------------------------------------------------------------------




--------------------------------------- Iteration      1(  13)  ---------------------------------------


    POTLOK:  cpu time    0.0034: real time    0.0034
    SETDIJ:  cpu time    0.0025: real time    0.0025
    EDDIAG:  cpu time    0.0183: real time    0.0183
  RMM-DIIS:  cpu time    0.0807: real time    0.0809
    ORTHCH:  cpu time    0.0033: real time    0.0033
       DOS:  cpu time    0.0003: real time    0.0003
    CHARGE:  cpu time    0.0046: real time    0.0046
    MIXING:  cpu time    0.0007: real time    0.0007
    --------------------------------------------
      LOOP:  cpu time    0.1139: real time    0.1142

 eigenvalue-minimisations  :   534
 total energy-change (2. order) : 0.1436682E-01  (-0.9297206E-02)
 number of electron     255.9976907 magnetization 
 augmentation part      -14.2222809 magnetization 

 Broyden mixing:
  rms(total) = 0.49257E-01    rms(broyden)= 0.49256E-01
  rms(prec ) = 0.93178E-01
  weight for this iteration     100.00

 eigenvalues of (default mixing * dielectric matrix)
  average eigenvalue GAMMA=   1.3010
  3.2028  1.7764  1.5593  1.5593  1.1383  1.1383  0.9332  0.9332  0.8439  0.8439
  0.9014  0.7817

 Free energy of the ion-electron system (eV)
  ---------------------------------------------------
  alpha Z        PSCENC =       105.38179549
  Ewald energy   TEWEN  =     -7262.23861673
  -Hartree energ DENC   =      -484.58634601
  -exchange      EXHF   =         0.00000000
  -V(xc)+E(xc)   XCENC  =      -576.75926045
  PAW double counting   =     41170.01100250   -40051.07321013
  entropy T*S    EENTRO =        -0.30149044
  eigenvalues    EBANDS =       197.25555522
  atomic energy  EATOM  =      6595.45443641
  Solvation  Ediel_sol  =         0.00000000
  ---------------------------------------------------
  free energy    TOTEN  =      -306.85613414 eV

  energy without entropy =     -306.55464370  energy(sigma->0) =     -306.70538892


--------------------------------------------------------------------------------------------------------




--------------------------------------- Iteration      1(  14)  ---------------------------------------


    POTLOK:  cpu time    0.0034: real time    0.0034
    SETDIJ:  cpu time    0.0025: real time    0.0025
    EDDIAG:  cpu time    0.0182: real time    0.0183
  RMM-DIIS:  cpu time    0.0703: real time    0.0705
    ORTHCH:  cpu time    0.0033: real time    0.0033
       DOS:  cpu time    0.0003: real time    0.0003
    CHARGE:  cpu time    0.0046: real time    0.0046
    MIXING:  cpu time    0.0008: real time    0.0008
    --------------------------------------------
      LOOP:  cpu time    0.1034: real time    0.1036

 eigenvalue-minimisations  :   469
 total energy-change (2. order) :-0.5923236E-03  (-0.2159255E-01)
 number of electron     255.9976904 magnetization 
 augmentation part      -14.2243605 magnetization 

 Broyden mixing:
  rms(total) = 0.21246E-01    rms(broyden)= 0.21234E-01
  rms(prec ) = 0.44958E-01
  weight for this iteration     100.00

 eigenvalues of (default mixing * dielectric matrix)
  average eigenvalue GAMMA=   1.3065
  3.1617  2.2771  1.5591  1.5591  1.1479  1.1479  0.9878  0.9878  0.8722  0.8722
  0.8521  0.7800  0.7800

 Free energy of the ion-electron system (eV)
  ---------------------------------------------------
  alpha Z        PSCENC =       105.38179549
  Ewald energy   TEWEN  =     -7262.23861673
  -Hartree energ DENC   =      -484.17422198
  -exchange      EXHF   =         0.00000000
  -V(xc)+E(xc)   XCENC  =      -576.82285125
  PAW double counting   =     40956.97805422   -39837.97281658
  entropy T*S    EENTRO =        -0.30222874
  eigenvalues    EBANDS =       196.83972269
  atomic energy  EATOM  =      6595.45443641
  Solvation  Ediel_sol  =         0.00000000
  ---------------------------------------------------
  free energy    TOTEN  =      -306.85672646 eV

  energy without entropy =     -306.55449772  energy(sigma->0) =     -306.70561209


--------------------------------------------------------------------------------------------------------




--------------------------------------- Iteration      1(  15)  ---------------------------------------


    POTLOK:  cpu time    0.0034: real time    0.0035
    SETDIJ:  cpu time    0.0025: real time    0.0025
    EDDIAG:  cpu time    0.0183: real time    0.0183
  RMM-DIIS:  cpu time    0.0764: real time    0.0766
    ORTHCH:  cpu time    0.0033: real time    0.0033
       DOS:  cpu time    0.0004: real time    0.0003
    CHARGE:  cpu time    0.0046: real time    0.0046
    MIXING:  cpu time    0.0009: real time    0.0009
    --------------------------------------------
      LOOP:  cpu time    0.1097: real time    0.1100

 eigenvalue-minimisations  :   514
 total energy-change (2. order) : 0.7103190E-02  ( 0.3904158E-02)
 number of electron     255.9976901 magnetization 
 augmentation part      -14.2259558 magnetization 

 Broyden mixing:
  rms(total) = 0.18070E-01    rms(broyden)= 0.18068E-01
  rms(prec ) = 0.36264E-01
  weight for this iteration     100.00

 eigenvalues of (default mixing * dielectric matrix)
  average eigenvalue GAMMA=   1.2850
  3.1296  2.3964  1.6162  1.6162  1.1858  1.1858  1.0045  1.0045  0.9211  0.9211
  0.8164  0.8164  0.7812  0.5946

 Free energy of the ion-electron system (eV)
  ---------------------------------------------------
  alpha Z        PSCENC =       105.38179549
  Ewald energy   TEWEN  =     -7262.23861673
  -Hartree energ DENC   =      -484.07382700
  -exchange      EXHF   =         0.00000000
  -V(xc)+E(xc)   XCENC  =      -576.82328427
  PAW double counting   =     40994.26242361   -39875.19764935
  entropy T*S    EENTRO =        -0.30217466
  eigenvalues    EBANDS =       196.68727323
  atomic energy  EATOM  =      6595.45443641
  Solvation  Ediel_sol  =         0.00000000
  ---------------------------------------------------
  free energy    TOTEN  =      -306.84962327 eV

  energy without entropy =     -306.54744861  energy(sigma->0) =     -306.69853594


--------------------------------------------------------------------------------------------------------




--------------------------------------- Iteration      1(  16)  ---------------------------------------


    POTLOK:  cpu time    0.0034: real time    0.0034
    SETDIJ:  cpu time    0.0025: real time    0.0025
    EDDIAG:  cpu time    0.0182: real time    0.0182
  RMM-DIIS:  cpu time    0.0709: real time    0.0711
    ORTHCH:  cpu time    0.0033: real time    0.0033
       DOS:  cpu time    0.0003: real time    0.0003
    CHARGE:  cpu time    0.0046: real time    0.0046
    MIXING:  cpu time    0.0010: real time    0.0010
    --------------------------------------------
      LOOP:  cpu time    0.1042: real time    0.1044

 eigenvalue-minimisations  :   462
 total energy-change (2. order) : 0.2232916E-02  ( 0.9884288E-04)
 number of electron     255.9976901 magnetization 
 augmentation part      -14.2260701 magnetization 

 Broyden mixing:
  rms(total) = 0.16366E-01    rms(broyden)= 0.16364E-01
  rms(prec ) = 0.26437E-01
  weight for this iteration     100.00

 eigenvalues of (default mixing * dielectric matrix)
  average eigenvalue GAMMA=   1.2489
  3.1607  2.4217  1.6389  1.6389  1.1902  1.1902  1.0358  1.0358  0.9062  0.9062
  0.8344  0.8344  0.7711  0.5843  0.5843

 Free energy of the ion-electron system (eV)
  ---------------------------------------------------
  alpha Z        PSCENC =       105.38179549
  Ewald energy   TEWEN  =     -7262.23861673
  -Hartree energ DENC   =      -484.10128075
  -exchange      EXHF   =         0.00000000
  -V(xc)+E(xc)   XCENC  =      -576.82017364
  PAW double counting   =     40975.12712989   -39856.05711220
  entropy T*S    EENTRO =        -0.30209884
  eigenvalues    EBANDS =       196.70853001
  atomic energy  EATOM  =      6595.45443641
  Solvation  Ediel_sol  =         0.00000000
  ---------------------------------------------------
  free energy    TOTEN  =      -306.84739036 eV

  energy without entropy =     -306.54529152  energy(sigma->0) =     -306.69634094


--------------------------------------------------------------------------------------------------------




--------------------------------------- Iteration      1(  17)  ---------------------------------------


    POTLOK:  cpu time    0.0034: real time    0.0034
    SETDIJ:  cpu time    0.0025: real time    0.0025
    EDDIAG:  cpu time    0.0183: real time    0.0184
  RMM-DIIS:  cpu time    0.0788: real time    0.0790
    ORTHCH:  cpu time    0.0033: real time    0.0033
       DOS:  cpu time    0.0003: real time    0.0003
    CHARGE:  cpu time    0.0046: real time    0.0046
    MIXING:  cpu time    0.0010: real time    0.0010
    --------------------------------------------
      LOOP:  cpu time    0.1122: real time    0.1125

 eigenvalue-minimisations  :   524
 total energy-change (2. order) : 0.2023098E-02  ( 0.1251262E-02)
 number of electron     255.9976902 magnetization 
 augmentation part      -14.2256157 magnetization 

 Broyden mixing:
  rms(total) = 0.13753E-01    rms(broyden)= 0.13753E-01
  rms(prec ) = 0.21264E-01
  weight for this iteration     100.00

 eigenvalues of (default mixing * dielectric matrix)
  average eigenvalue GAMMA=   1.2596
  3.2362  2.3439  1.6220  1.6220  1.1241  1.1241  1.2055  1.2055  0.9701  0.9701
  0.8630  0.8630  0.8483  0.8483  0.7546  0.5529

 Free energy of the ion-electron system (eV)
  ---------------------------------------------------
  alpha Z        PSCENC =       105.38179549
  Ewald energy   TEWEN  =     -7262.23861673
  -Hartree energ DENC   =      -484.25577368
  -exchange      EXHF   =         0.00000000
  -V(xc)+E(xc)   XCENC  =      -576.80357382
  PAW double counting   =     40953.05889469   -39833.98975768
  entropy T*S    EENTRO =        -0.30209883
  eigenvalues    EBANDS =       196.84932689
  atomic energy  EATOM  =      6595.45443641
  Solvation  Ediel_sol  =         0.00000000
  ---------------------------------------------------
  free energy    TOTEN  =      -306.84536726 eV

  energy without entropy =     -306.54326843  energy(sigma->0) =     -306.69431784


--------------------------------------------------------------------------------------------------------




--------------------------------------- Iteration      1(  18)  ---------------------------------------


    POTLOK:  cpu time    0.0034: real time    0.0034
    SETDIJ:  cpu time    0.0025: real time    0.0025
    EDDIAG:  cpu time    0.0183: real time    0.0183
  RMM-DIIS:  cpu time    0.0686: real time    0.0688
    ORTHCH:  cpu time    0.0033: real time    0.0033
       DOS:  cpu time    0.0003: real time    0.0003
    CHARGE:  cpu time    0.0046: real time    0.0046
    MIXING:  cpu time    0.0011: real time    0.0011
    --------------------------------------------
      LOOP:  cpu time    0.1020: real time    0.1023

 eigenvalue-minimisations  :   436
 total energy-change (2. order) : 0.1412898E-02  ( 0.5857775E-03)
 number of electron     255.9976904 magnetization 
 augmentation part      -14.2245212 magnetization 

 Broyden mixing:
  rms(total) = 0.73929E-02    rms(broyden)= 0.73924E-02
  rms(prec ) = 0.11437E-01
  weight for this iteration     100.00

 eigenvalues of (default mixing * dielectric matrix)
  average eigenvalue GAMMA=   1.2741
  3.2146  2.2116  1.8966  1.5902  1.5902  1.1548  1.1548  0.9847  0.9847  1.1078
  1.1078  0.8657  0.8657  0.8088  0.8088  0.6568  0.6568

 Free energy of the ion-electron system (eV)
  ---------------------------------------------------
  alpha Z        PSCENC =       105.38179549
  Ewald energy   TEWEN  =     -7262.23861673
  -Hartree energ DENC   =      -484.54455461
  -exchange      EXHF   =         0.00000000
  -V(xc)+E(xc)   XCENC  =      -576.77554074
  PAW double counting   =     40901.50423460   -39782.44705301
  entropy T*S    EENTRO =        -0.30211683
  eigenvalues    EBANDS =       197.12346106
  atomic energy  EATOM  =      6595.45443641
  Solvation  Ediel_sol  =         0.00000000
  ---------------------------------------------------
  free energy    TOTEN  =      -306.84395436 eV

  energy without entropy =     -306.54183753  energy(sigma->0) =     -306.69289595


--------------------------------------------------------------------------------------------------------




--------------------------------------- Iteration      1(  19)  ---------------------------------------


    POTLOK:  cpu time    0.0034: real time    0.0034
    SETDIJ:  cpu time    0.0025: real time    0.0025
    EDDIAG:  cpu time    0.0183: real time    0.0183
  RMM-DIIS:  cpu time    0.0757: real time    0.0759
    ORTHCH:  cpu time    0.0033: real time    0.0033
       DOS:  cpu time    0.0003: real time    0.0003
    CHARGE:  cpu time    0.0045: real time    0.0046
    MIXING:  cpu time    0.0011: real time    0.0011
    --------------------------------------------
      LOOP:  cpu time    0.1091: real time    0.1094

 eigenvalue-minimisations  :   495
 total energy-change (2. order) : 0.2221283E-02  ( 0.1990788E-02)
 number of electron     255.9976904 magnetization 
 augmentation part      -14.2242366 magnetization 

 Broyden mixing:
  rms(total) = 0.48752E-02    rms(broyden)= 0.48746E-02
  rms(prec ) = 0.77864E-02
  weight for this iteration     100.00

 eigenvalues of (default mixing * dielectric matrix)
  average eigenvalue GAMMA=   1.3027
  3.1577  2.4368  2.0835  2.0835  1.1577  1.1577  1.4301  1.2028  1.2028  0.9564
  0.9564  0.8181  0.8181  0.9149  0.9149  0.7885  0.7885  0.5800

 Free energy of the ion-electron system (eV)
  ---------------------------------------------------
  alpha Z        PSCENC =       105.38179549
  Ewald energy   TEWEN  =     -7262.23861673
  -Hartree energ DENC   =      -484.65143286
  -exchange      EXHF   =         0.00000000
  -V(xc)+E(xc)   XCENC  =      -576.76342655
  PAW double counting   =     40889.60683447   -39770.54838791
  entropy T*S    EENTRO =        -0.30209445
  eigenvalues    EBANDS =       197.21915905
  atomic energy  EATOM  =      6595.45443641
  Solvation  Ediel_sol  =         0.00000000
  ---------------------------------------------------
  free energy    TOTEN  =      -306.84173308 eV

  energy without entropy =     -306.53963863  energy(sigma->0) =     -306.69068585


--------------------------------------------------------------------------------------------------------




--------------------------------------- Iteration      1(  20)  ---------------------------------------


    POTLOK:  cpu time    0.0034: real time    0.0034
    SETDIJ:  cpu time    0.0025: real time    0.0025
    EDDIAG:  cpu time    0.0183: real time    0.0183
  RMM-DIIS:  cpu time    0.0678: real time    0.0679
    ORTHCH:  cpu time    0.0033: real time    0.0033
       DOS:  cpu time    0.0003: real time    0.0003
    CHARGE:  cpu time    0.0045: real time    0.0046
    MIXING:  cpu time    0.0012: real time    0.0012
    --------------------------------------------
      LOOP:  cpu time    0.1013: real time    0.1016

 eigenvalue-minimisations  :   451
 total energy-change (2. order) : 0.1147711E-02  ( 0.1047297E-02)
 number of electron     255.9976904 magnetization 
 augmentation part      -14.2244137 magnetization 

 Broyden mixing:
  rms(total) = 0.31045E-02    rms(broyden)= 0.31040E-02
  rms(prec ) = 0.44875E-02
  weight for this iteration     100.00

 eigenvalues of (default mixing * dielectric matrix)
  average eigenvalue GAMMA=   1.3184
  3.0740  3.0740  2.1021  2.1021  1.1593  1.1593  1.3231  1.3231  1.3025  0.9660
  0.9660  0.9822  0.9822  0.8068  0.8068  0.8375  0.7228  0.7228  0.6360

 Free energy of the ion-electron system (eV)
  ---------------------------------------------------
  alpha Z        PSCENC =       105.38179549
  Ewald energy   TEWEN  =     -7262.23861673
  -Hartree energ DENC   =      -484.62618144
  -exchange      EXHF   =         0.00000000
  -V(xc)+E(xc)   XCENC  =      -576.76477878
  PAW double counting   =     40894.35346983   -39775.29005519
  entropy T*S    EENTRO =        -0.30207907
  eigenvalues    EBANDS =       197.19142411
  atomic energy  EATOM  =      6595.45443641
  Solvation  Ediel_sol  =         0.00000000
  ---------------------------------------------------
  free energy    TOTEN  =      -306.84058537 eV

  energy without entropy =     -306.53850630  energy(sigma->0) =     -306.68954583


--------------------------------------------------------------------------------------------------------




--------------------------------------- Iteration      1(  21)  ---------------------------------------


    POTLOK:  cpu time    0.0034: real time    0.0034
    SETDIJ:  cpu time    0.0025: real time    0.0025
    EDDIAG:  cpu time    0.0182: real time    0.0183
  RMM-DIIS:  cpu time    0.0623: real time    0.0624
    ORTHCH:  cpu time    0.0033: real time    0.0033
       DOS:  cpu time    0.0003: real time    0.0003
    CHARGE:  cpu time    0.0046: real time    0.0046
    MIXING:  cpu time    0.0013: real time    0.0013
    --------------------------------------------
      LOOP:  cpu time    0.0959: real time    0.0961

 eigenvalue-minimisations  :   382
 total energy-change (2. order) : 0.8008523E-03  ( 0.7700386E-03)
 number of electron     255.9976904 magnetization 
 augmentation part      -14.2245476 magnetization 

 Broyden mixing:
  rms(total) = 0.22895E-02    rms(broyden)= 0.22891E-02
  rms(prec ) = 0.34890E-02
  weight for this iteration     100.00

 eigenvalues of (default mixing * dielectric matrix)
  average eigenvalue GAMMA=   1.3265
  3.1959  3.1959  2.1103  2.1103  1.1397  1.1397  1.3789  1.3789  1.1590  1.1590
  0.9687  0.9687  1.2127  0.7885  0.7885  0.8540  0.8540  0.7760  0.7760  0.5742

 Free energy of the ion-electron system (eV)
  ---------------------------------------------------
  alpha Z        PSCENC =       105.38179549
  Ewald energy   TEWEN  =     -7262.23861673
  -Hartree energ DENC   =      -484.58916241
  -exchange      EXHF   =         0.00000000
  -V(xc)+E(xc)   XCENC  =      -576.76895191
  PAW double counting   =     40888.53061410   -39769.46509643
  entropy T*S    EENTRO =        -0.30209559
  eigenvalues    EBANDS =       197.15729256
  atomic energy  EATOM  =      6595.45443641
  Solvation  Ediel_sol  =         0.00000000
  ---------------------------------------------------
  free energy    TOTEN  =      -306.83978451 eV

  energy without entropy =     -306.53768893  energy(sigma->0) =     -306.68873672


--------------------------------------------------------------------------------------------------------




--------------------------------------- Iteration      1(  22)  ---------------------------------------


    POTLOK:  cpu time    0.0034: real time    0.0035
    SETDIJ:  cpu time    0.0025: real time    0.0025
    EDDIAG:  cpu time    0.0183: real time    0.0184
  RMM-DIIS:  cpu time    0.0560: real time    0.0561
    ORTHCH:  cpu time    0.0028: real time    0.0028
       DOS:  cpu time    0.0003: real time    0.0003
    CHARGE:  cpu time    0.0046: real time    0.0046
    MIXING:  cpu time    0.0013: real time    0.0013
    --------------------------------------------
      LOOP:  cpu time    0.0893: real time    0.0895

 eigenvalue-minimisations  :   330
 total energy-change (2. order) : 0.5338303E-03  ( 0.5135599E-03)
 number of electron     255.9976904 magnetization 
 augmentation part      -14.2244933 magnetization 

 Broyden mixing:
  rms(total) = 0.24052E-02    rms(broyden)= 0.24047E-02
  rms(prec ) = 0.35244E-02
  weight for this iteration     100.00

 eigenvalues of (default mixing * dielectric matrix)
  average eigenvalue GAMMA=   1.2747
  3.1873  3.1873  2.1519  2.1519  1.1354  1.1354  1.3651  1.3651  1.2015  1.2015
  0.9670  0.9670  1.2004  0.7876  0.7876  0.8535  0.8535  0.7758  0.7758  0.5713
  0.1461

 Free energy of the ion-electron system (eV)
  ---------------------------------------------------
  alpha Z        PSCENC =       105.38179549
  Ewald energy   TEWEN  =     -7262.23861673
  -Hartree energ DENC   =      -484.59481763
  -exchange      EXHF   =         0.00000000
  -V(xc)+E(xc)   XCENC  =      -576.76859101
  PAW double counting   =     40885.52254536   -39766.45730555
  entropy T*S    EENTRO =        -0.30209884
  eigenvalues    EBANDS =       197.16340181
  atomic energy  EATOM  =      6595.45443641
  Solvation  Ediel_sol  =         0.00000000
  ---------------------------------------------------
  free energy    TOTEN  =      -306.83925068 eV

  energy without entropy =     -306.53715185  energy(sigma->0) =     -306.68820127


--------------------------------------------------------------------------------------------------------




--------------------------------------- Iteration      1(  23)  ---------------------------------------


    POTLOK:  cpu time    0.0034: real time    0.0034
    SETDIJ:  cpu time    0.0025: real time    0.0025
    EDDIAG:  cpu time    0.0183: real time    0.0183
  RMM-DIIS:  cpu time    0.0512: real time    0.0513
    ORTHCH:  cpu time    0.0038: real time    0.0038
       DOS:  cpu time    0.0003: real time    0.0003
    CHARGE:  cpu time    0.0051: real time    0.0064
    MIXING:  cpu time    0.0014: real time    0.0014
    --------------------------------------------
      LOOP:  cpu time    0.0860: real time    0.0876

 eigenvalue-minimisations  :   264
 total energy-change (2. order) : 0.5173813E-03  ( 0.5172273E-03)
 number of electron     255.9976904 magnetization 
 augmentation part      -14.2244816 magnetization 

 Broyden mixing:
  rms(total) = 0.40156E-02    rms(broyden)= 0.40151E-02
  rms(prec ) = 0.61843E-02
  weight for this iteration     100.00

 eigenvalues of (default mixing * dielectric matrix)
  average eigenvalue GAMMA=   1.2452
  3.1730  3.1730  2.1321  2.1321  1.5609  1.5609  1.1454  1.1454  1.1897  1.1897
  0.9620  0.9620  1.0594  0.8185  0.8185  0.8319  0.8319  0.7185  0.7185  0.6093
  0.5574  0.1035

 Free energy of the ion-electron system (eV)
  ---------------------------------------------------
  alpha Z        PSCENC =       105.38179549
  Ewald energy   TEWEN  =     -7262.23861673
  -Hartree energ DENC   =      -484.59536547
  -exchange      EXHF   =         0.00000000
  -V(xc)+E(xc)   XCENC  =      -576.76853050
  PAW double counting   =     40885.61443131   -39766.54921598
  entropy T*S    EENTRO =        -0.30209928
  eigenvalues    EBANDS =       197.16443144
  atomic energy  EATOM  =      6595.45443641
  Solvation  Ediel_sol  =         0.00000000
  ---------------------------------------------------
  free energy    TOTEN  =      -306.83873330 eV

  energy without entropy =     -306.53663402  energy(sigma->0) =     -306.68768366


--------------------------------------------------------------------------------------------------------




--------------------------------------- Iteration      1(  24)  ---------------------------------------


    POTLOK:  cpu time    0.0035: real time    0.0044
    SETDIJ:  cpu time    0.0025: real time    0.0040
    EDDIAG:  cpu time    0.0197: real time    0.0205
  RMM-DIIS:  cpu time    0.0443: real time    0.0447
    ORTHCH:  cpu time    0.0038: real time    0.0038
       DOS:  cpu time    0.0003: real time    0.0003
    CHARGE:  cpu time    0.0048: real time    0.0048
    MIXING:  cpu time    0.0017: real time    0.0017
    --------------------------------------------
      LOOP:  cpu time    0.0806: real time    0.0842

 eigenvalue-minimisations  :   243
 total energy-change (2. order) : 0.3415635E-03  ( 0.3612337E-03)
 number of electron     255.9976904 magnetization 
 augmentation part      -14.2244466 magnetization 

 Broyden mixing:
  rms(total) = 0.57024E-02    rms(broyden)= 0.57021E-02
  rms(prec ) = 0.90130E-02
  weight for this iteration     100.00

 eigenvalues of (default mixing * dielectric matrix)
  average eigenvalue GAMMA=   1.2018
  3.1909  3.1909  2.1516  2.1516  1.5516  1.5516  1.1454  1.1454  1.1909  1.1909
  0.9620  0.9620  1.0561  0.8201  0.8201  0.8244  0.8244  0.6995  0.6995  0.6956
  0.5793  0.1190  0.1190

 Free energy of the ion-electron system (eV)
  ---------------------------------------------------
  alpha Z        PSCENC =       105.38179549
  Ewald energy   TEWEN  =     -7262.23861673
  -Hartree energ DENC   =      -484.59778490
  -exchange      EXHF   =         0.00000000
  -V(xc)+E(xc)   XCENC  =      -576.76865340
  PAW double counting   =     40882.23569187   -39763.17131155
  entropy T*S    EENTRO =        -0.30209756
  eigenvalues    EBANDS =       197.16814863
  atomic energy  EATOM  =      6595.45443641
  Solvation  Ediel_sol  =         0.00000000
  ---------------------------------------------------
  free energy    TOTEN  =      -306.83839174 eV

  energy without entropy =     -306.53629418  energy(sigma->0) =     -306.68734296


--------------------------------------------------------------------------------------------------------




--------------------------------------- Iteration      1(  25)  ---------------------------------------


    POTLOK:  cpu time    0.0035: real time    0.0044
    SETDIJ:  cpu time    0.0025: real time    0.0034
    EDDIAG:  cpu time    0.0186: real time    0.0186
  RMM-DIIS:  cpu time    0.0407: real time    0.0408
    ORTHCH:  cpu time    0.0028: real time    0.0029
       DOS:  cpu time    0.0003: real time    0.0003
    CHARGE:  cpu time    0.0046: real time    0.0046
    MIXING:  cpu time    0.0016: real time    0.0016
    --------------------------------------------
      LOOP:  cpu time    0.0746: real time    0.0765

 eigenvalue-minimisations  :   214
 total energy-change (2. order) : 0.5337324E-03  ( 0.5176247E-03)
 number of electron     255.9976904 magnetization 
 augmentation part      -14.2244278 magnetization 

 Broyden mixing:
  rms(total) = 0.71407E-02    rms(broyden)= 0.71405E-02
  rms(prec ) = 0.11373E-01
  weight for this iteration     100.00

 eigenvalues of (default mixing * dielectric matrix)
  average eigenvalue GAMMA=   1.1581
  3.1948  3.1948  2.1544  2.1544  1.5534  1.5534  1.1455  1.1455  1.1874  1.1874
  0.9618  0.9618  1.0448  0.8201  0.8201  0.8226  0.8226  0.6980  0.6980  0.6975
  0.5816  0.1601  0.1601  0.0745

 Free energy of the ion-electron system (eV)
  ---------------------------------------------------
  alpha Z        PSCENC =       105.38179549
  Ewald energy   TEWEN  =     -7262.23861673
  -Hartree energ DENC   =      -484.59743306
  -exchange      EXHF   =         0.00000000
  -V(xc)+E(xc)   XCENC  =      -576.76865978
  PAW double counting   =     40882.46935647   -39763.40487264
  entropy T*S    EENTRO =        -0.30209615
  eigenvalues    EBANDS =       197.16823199
  atomic energy  EATOM  =      6595.45443641
  Solvation  Ediel_sol  =         0.00000000
  ---------------------------------------------------
  free energy    TOTEN  =      -306.83785801 eV

  energy without entropy =     -306.53576185  energy(sigma->0) =     -306.68680993


--------------------------------------------------------------------------------------------------------




--------------------------------------- Iteration      1(  26)  ---------------------------------------


    POTLOK:  cpu time    0.0034: real time    0.0035
    SETDIJ:  cpu time    0.0025: real time    0.0025
    EDDIAG:  cpu time    0.0184: real time    0.0184
  RMM-DIIS:  cpu time    0.0413: real time    0.0413
    ORTHCH:  cpu time    0.0029: real time    0.0029
       DOS:  cpu time    0.0003: real time    0.0003
    CHARGE:  cpu time    0.0046: real time    0.0046
    MIXING:  cpu time    0.0017: real time    0.0017
    --------------------------------------------
      LOOP:  cpu time    0.0750: real time    0.0752

 eigenvalue-minimisations  :   215
 total energy-change (2. order) : 0.4817397E-03  ( 0.4821629E-03)
 number of electron     255.9976904 magnetization 
 augmentation part      -14.2244298 magnetization 

 Broyden mixing:
  rms(total) = 0.87270E-02    rms(broyden)= 0.87267E-02
  rms(prec ) = 0.13970E-01
  weight for this iteration     100.00

 eigenvalues of (default mixing * dielectric matrix)
  average eigenvalue GAMMA=   1.1328
  3.1525  3.1525  2.1741  2.1741  1.5485  1.5485  1.1477  1.1477  1.1884  1.1884
  0.9613  0.9613  1.1366  0.8405  0.8405  0.7891  0.7891  0.7651  0.7651  0.5670
  0.5392  0.5392  0.1944  0.1047  0.1047

 Free energy of the ion-electron system (eV)
  ---------------------------------------------------
  alpha Z        PSCENC =       105.38179549
  Ewald energy   TEWEN  =     -7262.23861673
  -Hartree energ DENC   =      -484.59704000
  -exchange      EXHF   =         0.00000000
  -V(xc)+E(xc)   XCENC  =      -576.76869852
  PAW double counting   =     40882.48266783   -39763.41814988
[...]


    CHARGE:  cpu time    0.0069: real time    0.0069
    FORLOC:  cpu time    0.0024: real time    0.0024
    FORNL :  cpu time    0.0281: real time    0.0282
    STRESS:  cpu time    0.0783: real time    0.0785
    FORCOR:  cpu time    0.0035: real time    0.0035
    FORHAR:  cpu time    0.0018: real time    0.0018
    MIXING:  cpu time    0.0031: real time    0.0031
    OFIELD:  cpu time    0.0000: real time    0.0000

  FORCE on cell =-STRESS in cart. coord.  units (eV):
  Direction    XX          YY          ZZ          XY          YZ          ZX
  --------------------------------------------------------------------------------------
  Alpha Z   105.38180   105.38180   105.38180
  Ewald   -2451.84713 -2349.31883 -2403.36205   -25.70131    86.37241   112.14821
  Hartree   157.97203   196.04754   173.48437   -10.59031    17.19393    15.51392
  E(xc)    -796.79557  -796.77022  -796.56861    -0.12136    -0.19169    -0.73996
  Local    -892.18884 -1032.48275  -956.96071    36.83315  -102.70967  -132.48465
  n-local  2479.00583  2483.61192  2481.72013    -0.32971    10.44737    23.11121
  augment  -380.87268  -381.60238  -380.62003     0.16573    -0.60052    -1.59786
  Kinetic  1789.75874  1792.97481  1772.97773     3.14851    -7.50881   -16.30765
  Fock        0.00000     0.00000     0.00000     0.00000     0.00000     0.00000
  -------------------------------------------------------------------------------------
  Total      10.41419    17.84187    -3.94739     3.40470     3.00301    -0.35679
  in kB      12.75226    21.84752    -4.83361     4.16908     3.67722    -0.43689
  external pressure =        9.92 kB  Pullay stress =        0.00 kB

  kinetic pressure (ideal gas correction) =     13.71 kB
  total pressure  =     23.63 kB
  Total+kin.    25.327      32.936      12.641       4.738       5.281       0.207

 VOLUME and BASIS-vectors are now :
 -----------------------------------------------------------------------------
  energy-cutoff  :      184.01
  volume of cell :     1308.43
      direct lattice vectors                 reciprocal lattice vectors
    10.937455177  0.000000000  0.000000000     0.091428946  0.000000000  0.000000000
     0.000000000 10.937455177  0.000000000     0.000000000  0.091428946  0.000000000
     0.000000000  0.000000000 10.937455177     0.000000000  0.000000000  0.091428946

  length of vectors
    10.937455177 10.937455177 10.937455177     0.091428946  0.091428946  0.091428946


 FORCES acting on ions
    electron-ion (+dipol)            ewald-force                    non-local-force                 convergence-correction
 -----------------------------------------------------------------------------------------------
   0.331E+01 0.123E+02 -.144E+02   -.285E+01 -.109E+02 0.116E+02   0.780E-01 -.231E+01 0.392E+01   -.404E-01 -.415E-01 0.226E+00
   -.790E+01 0.137E+02 -.773E+01   0.497E+01 -.137E+02 0.615E+01   0.322E+01 0.647E+00 0.256E+01   0.311E-01 0.310E-01 -.109E+00
   -.167E+02 -.395E+01 0.816E+01   0.161E+02 0.445E+01 -.825E+01   0.105E+01 -.241E-02 0.450E+00   0.763E-01 0.570E-01 -.129E-01
   -.455E+01 -.240E+02 0.179E+02   0.389E+01 0.247E+02 -.171E+02   -.797E+00 0.386E+00 -.138E+01   0.283E+00 0.203E-01 0.725E-01
   0.425E+01 -.894E+01 -.319E+02   -.611E+01 0.713E+01 0.340E+02   0.288E+01 0.285E+01 -.143E+01   0.754E-01 0.556E-01 -.556E-02
   -.154E+02 -.238E+01 0.174E+02   0.117E+02 0.234E+01 -.158E+02   0.483E+01 0.342E-01 -.400E+00   -.343E-01 0.996E-01 -.812E-01
   0.173E+02 -.110E+02 0.433E+01   -.181E+02 0.114E+02 -.282E+01   0.198E+01 -.141E+00 -.945E+00   -.141E+00 0.749E-02 -.108E+00
   0.658E+00 -.444E+01 -.191E+02   0.281E+00 0.355E+01 0.186E+02   -.141E+01 0.546E+00 0.103E+01   -.313E+00 -.113E+00 0.119E+00
   0.325E+02 -.294E+01 -.236E+02   -.323E+02 0.291E+01 0.245E+02   -.706E+00 0.540E+00 -.277E+00   0.176E+00 -.150E+00 -.822E-02
   -.746E+01 -.600E+00 0.780E+01   0.584E+01 0.136E+01 -.898E+01   -.161E+00 0.145E+01 0.396E+00   0.184E+00 -.127E+00 0.306E-01
   -.745E+01 -.430E+01 -.201E+02   0.846E+01 0.363E+01 0.174E+02   0.177E+00 0.169E+01 0.326E+01   -.602E-01 -.577E-01 -.857E-02
   -.121E+02 0.407E+01 -.454E+01   0.120E+02 -.467E+01 0.353E+01   -.949E-01 0.164E+01 -.791E-02   -.809E-01 0.170E+00 -.106E+00
   -.156E+02 -.181E+00 0.151E+02   0.154E+02 -.351E+00 -.133E+02   0.629E+00 -.231E+00 -.266E+01   -.337E+00 0.722E-01 -.236E-01
   -.506E+01 -.850E+01 -.255E+01   0.426E+01 0.823E+01 0.318E+01   0.336E+00 0.366E+00 -.189E+01   -.135E+00 -.230E-01 0.140E+00
   0.429E+01 0.653E+01 0.582E+01   -.561E+01 -.757E+01 -.447E+01   0.979E+00 0.180E+01 -.336E+01   -.385E-01 -.132E+00 -.991E-01
   -.385E+00 0.185E+01 0.404E+01   -.743E+00 -.246E+01 -.453E+01   0.222E+01 0.161E+01 -.466E-01   -.405E-01 0.665E-01 0.924E-01
   0.965E+00 -.165E+02 0.791E+01   -.690E+00 0.136E+02 -.748E+01   -.169E+00 0.285E+01 -.319E+00   -.511E-01 -.157E-01 -.736E-01
   -.134E+02 -.115E+02 0.111E+02   0.126E+02 0.116E+02 -.114E+02   0.352E+00 0.345E+00 -.883E+00   -.140E+00 0.632E-01 0.109E+00
   -.197E+02 -.486E+01 -.289E+01   0.180E+02 0.303E+01 0.384E+01   0.449E+01 0.157E+01 -.144E+01   0.406E-01 -.113E-01 -.179E+00
   0.240E+02 0.470E+01 0.482E+01   -.220E+02 -.259E+01 -.606E+01   -.374E+01 -.341E+01 0.166E+01   -.160E+00 -.527E-01 0.947E-01
   -.160E+02 -.177E+02 0.122E+02   0.158E+02 0.198E+02 -.119E+02   0.329E+00 -.287E+01 -.117E+00   0.713E-01 -.687E-01 -.399E-01
   0.151E+02 -.256E+02 -.110E+01   -.132E+02 0.254E+02 -.653E+00   -.267E+01 0.162E+01 0.157E+01   0.132E+00 -.128E+00 -.506E-01
   0.357E+02 0.212E+02 0.144E+01   -.322E+02 -.208E+02 -.152E+00   -.526E+01 -.176E+01 -.264E+01   0.767E-01 0.250E+00 0.933E-01
   -.525E+01 -.207E+01 0.698E+01   0.447E+01 -.155E+01 -.904E+01   0.142E+01 0.274E+01 0.257E+01   0.221E+00 0.265E+00 0.421E-01
   -.944E+01 -.214E+02 -.132E+02   0.888E+01 0.202E+02 0.132E+02   0.893E+00 0.205E+01 0.702E-01   -.362E-01 0.128E+00 0.128E-01
   -.181E+02 -.116E+01 -.625E+01   0.191E+02 0.104E+01 0.549E+01   -.639E+00 0.343E+00 0.136E+01   0.582E-01 0.783E-01 -.459E-01
   -.766E+01 -.679E-01 -.494E+00   0.779E+01 -.449E+00 -.123E+01   0.139E+01 0.160E+01 0.275E+01   -.174E+00 -.118E+00 0.386E-01
   -.185E+02 -.131E+02 -.259E+01   0.156E+02 0.112E+02 0.278E+01   0.475E+01 0.256E+01 0.491E-01   -.115E+00 -.178E+00 -.181E-01
   -.514E+01 0.196E+02 -.760E+01   0.602E+01 -.193E+02 0.522E+01   -.108E+01 -.188E+01 0.390E+01   0.303E-01 -.946E-01 -.490E-01
   0.347E+01 0.234E+02 -.117E+02   -.459E+01 -.214E+02 0.122E+02   0.785E+00 -.211E+01 0.742E+00   0.126E+00 -.295E+00 0.247E-01
   -.102E+00 0.236E+02 0.159E+01   -.708E+00 -.226E+02 0.109E+01   0.215E+01 -.292E+01 -.430E+01   0.212E+00 0.119E+00 -.145E-01
   -.137E+02 0.496E+01 -.466E+01   0.125E+02 -.372E+01 0.445E+01   0.286E+01 -.630E+00 0.101E+01   0.133E+00 0.339E-01 0.471E-01
   -.149E+02 0.241E+02 0.560E+01   0.170E+02 -.236E+02 -.639E+01   -.205E+01 -.199E+01 0.115E+01   -.318E-01 0.175E+00 -.172E+00
   -.579E+00 0.129E+01 0.730E+01   0.858E+00 -.177E+01 -.657E+01   0.395E+00 -.241E+00 -.423E+00   -.124E+00 0.238E-01 0.527E-01
   -.127E+02 -.631E+00 -.105E+02   0.121E+02 0.248E+01 0.104E+02   0.509E+00 -.197E+01 0.176E+01   0.127E+00 -.178E+00 -.681E-01
   -.907E+01 0.524E+01 0.710E+01   0.956E+01 -.527E+01 -.714E+01   -.375E+00 -.842E-01 0.787E+00   -.254E-01 0.396E-01 0.671E-02
   0.180E+02 -.200E+02 0.340E+02   -.148E+02 0.197E+02 -.307E+02   -.392E+01 0.556E+00 -.629E+01   0.274E-01 -.118E+00 0.308E-01
   -.628E+01 -.109E+02 0.397E+01   0.649E+01 0.115E+02 -.299E+01   0.752E+00 0.163E+01 -.293E+01   0.102E+00 -.171E+00 0.147E+00
   0.853E+01 0.124E+02 -.200E+02   -.891E+01 -.113E+02 0.166E+02   0.110E+01 -.154E+01 0.460E+01   -.163E-01 0.118E+00 -.216E-01
   0.273E+02 -.178E+02 0.170E+02   -.250E+02 0.163E+02 -.181E+02   -.464E+01 0.347E+01 0.220E+01   -.374E-01 0.178E+00 -.723E-01
   -.127E+01 0.530E+01 0.418E+01   0.168E+01 -.409E+01 -.410E+01   -.250E+01 -.101E+01 -.574E+00   -.138E+00 -.725E-01 0.141E+00
   0.590E+01 0.614E+01 0.264E+00   -.419E+01 -.604E+01 -.128E+01   -.217E+01 -.535E+00 0.231E+01   -.132E+00 0.392E-03 -.111E+00
   -.814E+01 -.240E+01 -.112E+02   0.821E+01 0.102E+01 0.995E+01   -.124E+01 0.870E+00 0.116E+01   0.180E+00 0.182E-01 -.398E-01
   -.133E+02 -.797E+01 0.235E+02   0.116E+02 0.892E+01 -.229E+02   0.388E+01 -.507E+00 -.383E+01   0.747E-01 -.105E+00 0.108E+00
   0.173E+02 0.250E+02 -.211E+02   -.160E+02 -.256E+02 0.221E+02   -.225E+01 -.847E+00 -.278E+00   0.761E-01 -.423E-01 -.604E-01
   0.311E+02 -.766E+01 0.514E+00   -.277E+02 0.645E+01 -.251E+00   -.666E+01 -.593E+00 -.172E+01   0.857E-01 0.876E-01 -.482E-02
   -.352E+02 -.145E+02 0.548E+01   0.341E+02 0.123E+02 -.347E+01   0.258E+01 0.294E+01 -.196E+01   -.130E+00 0.210E-01 -.188E-01
   0.249E+01 0.358E+02 0.514E+01   -.103E+01 -.369E+02 -.350E+01   -.164E+00 0.119E+01 -.106E+01   -.334E+00 -.104E+00 0.309E-02
   0.728E+01 -.317E+02 -.760E+01   -.628E+01 0.320E+02 0.665E+01   -.253E+01 0.110E+01 0.136E+01   0.845E-01 -.138E+00 0.169E-01
   0.255E+02 -.381E+01 0.429E+01   -.243E+02 0.142E+01 -.406E+01   -.234E+01 0.223E+01 0.956E+00   0.177E+00 -.141E+00 -.979E-01
   -.524E+01 -.132E+02 -.355E+01   0.461E+01 0.976E+01 0.303E+01   -.123E+01 0.467E+01 0.173E+01   0.490E-01 0.873E-01 -.209E-01
   -.107E+02 -.923E+01 0.317E+01   0.102E+02 0.802E+01 -.307E+01   0.610E+00 0.550E+00 0.151E+01   0.138E+00 0.326E+00 0.105E+00
   0.317E+02 0.981E+01 0.491E+01   -.317E+02 -.904E+01 -.144E+01   -.402E+00 -.147E+01 -.388E+01   -.375E-01 0.190E+00 -.106E+00
   -.494E+01 0.892E+01 0.675E+01   0.654E+01 -.891E+01 -.783E+01   -.973E+00 -.350E+00 0.764E+00   -.219E+00 0.104E+00 0.118E+00
   0.393E+01 0.715E+01 -.364E+01   -.318E+01 -.555E+01 0.367E+01   -.215E+01 -.319E+01 -.780E+00   -.175E+00 -.133E+00 -.113E+00
   0.139E+02 -.204E+02 0.107E+02   -.148E+02 0.191E+02 -.111E+02   0.201E+01 0.264E+01 -.419E+00   -.184E+00 -.666E-01 0.117E+00
   -.176E+01 -.719E+01 0.616E+01   0.220E+01 0.644E+01 -.541E+01   -.100E+01 0.997E-03 -.192E+01   -.686E-01 -.157E-01 -.670E-01
   -.258E+02 -.866E+01 0.119E+02   0.232E+02 0.679E+01 -.133E+02   0.529E+01 0.244E+01 0.247E+00   0.106E+00 -.659E-01 0.169E+00
   0.281E+02 0.134E+02 -.244E+02   -.260E+02 -.124E+02 0.256E+02   -.305E+01 -.682E+00 -.122E+01   0.642E-01 -.536E-01 0.183E-01
   0.159E+01 0.226E+02 0.145E+02   0.127E+00 -.200E+02 -.131E+02   -.174E+01 -.367E+01 -.178E+01   0.318E+00 -.223E+00 -.363E-01
   0.117E+02 0.216E+02 0.122E+02   -.102E+02 -.178E+02 -.116E+02   -.444E+00 -.447E+01 -.128E+01   -.170E-01 -.561E-01 -.472E-01
   -.698E+01 0.267E+02 -.145E+02   0.720E+01 -.248E+02 0.142E+02   0.407E+00 -.397E+01 0.427E+00   -.125E+00 -.210E-01 0.124E+00
   -.254E+01 -.573E+01 -.104E+02   0.450E+01 0.673E+01 0.114E+02   -.327E+01 -.395E+00 0.131E+01   0.295E-01 0.971E-01 -.121E+00
   0.118E+02 0.645E+00 -.111E+02   -.106E+02 0.505E+00 0.107E+02   -.165E+01 -.262E+01 -.799E-01   -.207E+00 0.197E-01 -.339E-01
 -----------------------------------------------------------------------------------------------
   0.863E+01 -.479E+01 0.287E+01   0.462E-13 0.214E-13 -.195E-13   -.813E+01 0.512E+01 -.297E+01   -.333E+00 -.310E+00 0.566E-01
 
 
 POSITION                                       TOTAL-FORCE (eV/Angst)
 -----------------------------------------------------------------------------------
      2.45130      2.51801     10.63496         0.502016     -0.928639      1.401767
      2.50433      2.34304      4.97345         0.315117      0.694826      0.873794
      1.91120      7.31760     10.58381         0.519657      0.559384      0.348055
      2.28392      8.01083      5.72238        -1.170537      1.094625     -0.576432
      7.98073      2.58131      0.38524         1.095754      1.088106      0.578637
      8.20874      2.80253      5.38661         1.070803      0.086482      1.148297
      7.61568      8.30496      0.04288         1.021155      0.301677      0.456832
      8.61010      8.29296      4.81919        -0.788088     -0.457046      0.717619
      4.15513      0.00724      2.54656        -0.331951      0.354332      0.603479
      2.83146     10.61103      8.33411        -1.597090      2.080653     -0.758861
      2.53867      5.47534      2.57522         1.125748      0.960237      0.574708
      2.61297      4.92327      7.77985        -0.340103      1.207301     -1.127130
      7.91751     10.76381      4.25038         0.079837     -0.690702     -0.925570
      8.74138      0.65094      9.16626        -0.595085      0.079733     -1.124884
      8.51831      5.98913      2.91900        -0.384200      0.628255     -2.111446
      8.38558      5.15439      8.47096         1.051184      1.067247     -0.445568
      0.06376      3.42563      2.55040         0.054594     -0.006226      0.042012
     10.85796      2.61911      8.17660        -0.550479      0.503635     -1.081986
      0.19371      8.68202      1.79975         2.854870     -0.270206     -0.661090
     10.14693      8.65124      8.40295        -1.895444     -1.341896      0.515014
      4.97279      2.52993      2.93383         0.217237     -0.872389      0.174101
      5.74258      2.20127      8.14312        -0.639141      1.322476     -0.238168
      5.20725      8.01719      2.96183        -1.671177     -1.096365     -1.264449
      4.92980      7.55796      8.22196         0.864435     -0.617379      0.555078
      0.43576     10.92733      0.62802         0.299301      0.976703      0.072492
      0.13980      0.11314      5.43259         0.391540      0.301157      0.545848
     10.83704      5.70346     10.47090         1.342271      0.967723      1.065482
     10.51138      5.61502      5.39181         1.737550      0.496117      0.224842
      5.51667     10.49060      0.27716        -0.165526     -1.610258      1.474601
      5.88959      0.30429      6.39906        -0.202733     -0.488929      1.280326
      5.14347      5.39760     10.93309         1.552022     -1.773091     -1.641604
      5.52282      5.18834      5.32357         1.774647      0.639872      0.844821
      1.18370      1.53825      3.33109         0.015541     -1.375098      0.183662
      1.11600      1.05842      9.43591         0.549668     -0.699042      0.354367
      1.01563      7.17635      3.63187         0.076889     -0.297041      1.534980
      1.09165      6.85683      8.16442         0.095809     -0.078029      0.754339
      6.45119      1.67630      4.78401        -0.707853      0.137970     -2.974270
      6.57953      1.14861     10.15389         1.069541      2.030691     -1.805553
      6.73142      6.83688      4.00066         0.708548     -0.266181      1.140622
      6.92095      6.42986      9.43524        -2.384427      2.216838      1.115784
      1.67125      4.35383      0.83783        -2.228600      0.129847     -0.347038
      1.21519      3.92339      6.16799        -0.591138     -0.437903      1.182324
      2.59374      9.56038      0.89386        -0.986123     -0.486271     -0.149649
      0.97164      9.49884      7.52562         2.235693      0.341938     -3.142192
      7.61870      5.37544      0.64492        -0.871369     -1.459947      0.650663
      7.28502      4.22651      6.89697        -3.136528     -1.715043     -1.456906
      6.48981      9.67650      2.28840         1.379731      0.756936      0.034641
      7.33985      9.90582      7.66553         0.962057     -0.022912      0.583030
      4.66240      1.72548      0.62735        -1.439651      1.316538      0.420191
      3.73308      0.93105      6.44592        -0.927656     -0.300231      1.093699
      3.98396      6.82264      1.16951        -1.812281      1.319476      1.183664
      3.89041      6.52123      6.28357         0.211113     -0.341312      1.717215
      9.76389      1.46528      2.17445        -0.464029     -0.503475     -0.516674
      9.30822      1.22356      6.81799         0.411396     -0.229812     -0.194414
      9.59877      7.26570      1.11302        -1.577080     -1.725944     -0.869320
      9.22996      6.76273      7.04298         0.839581      1.219388     -0.717470
      3.80493      4.21723      4.23633        -0.628199     -0.759122     -1.238993
      3.75162      3.78753      9.39475         2.853075      0.498211     -0.953581
      5.02717      9.56645      4.72366        -0.870751      0.287607     -0.028506
      4.51861      9.62122      9.45870         0.288774     -1.298024     -0.384000
      9.31724      4.26452      4.04289         1.008909     -0.706625     -0.781328
      9.56081      3.92054      9.86953         0.501334     -2.038088      0.310566
     10.54706      9.66869      3.67190        -1.279635      0.702596      2.199274
      9.64683      9.82202     10.43032        -0.667289     -1.451133     -0.485550
 -----------------------------------------------------------------------------------
    total drift:                                0.173237      0.024216     -0.045809


--------------------------------------------------------------------------------------------------------



  FREE ENERGIE OF THE ION-ELECTRON SYSTEM (eV)
  ---------------------------------------------------
  free  energy   TOTEN  =      -272.71827341 eV

  energy  without entropy=     -272.58649098  energy(sigma->0) =     -272.65238219
 
 d Force =-0.2713589E+00[-0.722E+00, 0.179E+00]  d Energy =-0.2942289E+00 0.229E-01
 d Force =-0.1527844E+00[-0.302E+01, 0.271E+01]  d Ewald  =-0.1547864E+00 0.200E-02


--------------------------------------------------------------------------------------------------------


    POTLOK:  cpu time    0.0066: real time    0.0067


--------------------------------------------------------------------------------------------------------


           RANDOM_SEED =         433729551              768                0
   IONSTEP:  cpu time    0.0004: real time    0.2225

  ENERGY OF THE ELECTRON-ION-THERMOSTAT SYSTEM (eV)
  ---------------------------------------------------
% ion-electron   TOTEN  =      -272.718273  see above
  kinetic energy EKIN   =        16.157251
  kin. lattice  EKIN_LAT=         0.000000  (temperature 1984.08 K)
  nose potential ES     =       -32.773570
  nose kinetic   EPS    =         0.344220
  ---------------------------------------------------
  total energy   ETOTAL =      -288.990373 eV

  maximum distance moved by ions :      0.74E-02


 mean value of Nose-termostat <S>:    -0.651 mean value of <T> :  2046.560
 mean temperature <T/S>/<1/S>  :  1995.058

    WAVPRE:  cpu time    0.0580: real time    0.1165
    FEWALD:  cpu time    0.0019: real time    0.0027
    ORTHCH:  cpu time    0.0099: real time    0.0100
 Prediction of Wavefunctions ALPHA= 1.887 BETA=-0.916
    POTLOK:  cpu time    0.0063: real time    0.0063
    EDDIAG:  cpu time    0.0185: real time    0.0185
 writing wavefunctions
     LOOP+:  cpu time    3.7943: real time    4.6493
    4ORBIT:  cpu time    0.0000: real time    0.0000

 total amount of memory used by VASP MPI-rank0    35890. kBytes
=======================================================================

   base      :      30000. kBytes
   nonlr-proj:       1957. kBytes
   fftplans  :        377. kBytes
   grid      :       2114. kBytes
   one-center:         98. kBytes
   wavefun   :       1344. kBytes
 
  
  
 General timing and accounting informations for this job:
 ========================================================
  
                  Total CPU time used (sec):      109.852
                            User time (sec):      103.138
                          System time (sec):        6.714
                         Elapsed time (sec):      125.007
  
                   Maximum memory used (kb):      220384.
                   Average memory used (kb):           0.
  
                          Minor page faults:      1514023
                          Major page faults:          119
                 Voluntary context switches:        10405
