Si_2x2x2                                
           1
    10.937455    0.000000    0.000000
     0.000000   10.937455    0.000000
     0.000000    0.000000   10.937455
   Si
  64
Direct configuration=     1
   0.25000000  0.25000000  0.00000000
   0.25000000  0.25000000  0.50000000
   0.25000000  0.75000000  0.00000000
   0.25000000  0.75000000  0.50000000
   0.75000000  0.25000000  0.00000000
   0.75000000  0.25000000  0.50000000
   0.75000000  0.75000000  0.00000000
   0.75000000  0.75000000  0.50000000
   0.25000000  0.00000000  0.25000000
   0.25000000  0.00000000  0.75000000
   0.25000000  0.50000000  0.25000000
   0.25000000  0.50000000  0.75000000
   0.75000000  0.00000000  0.25000000
   0.75000000  0.00000000  0.75000000
   0.75000000  0.50000000  0.25000000
   0.75000000  0.50000000  0.75000000
   0.00000000  0.25000000  0.25000000
   0.00000000  0.25000000  0.75000000
   0.00000000  0.75000000  0.25000000
   0.00000000  0.75000000  0.75000000
   0.50000000  0.25000000  0.25000000
   0.50000000  0.25000000  0.75000000
   0.50000000  0.75000000  0.25000000
   0.50000000  0.75000000  0.75000000
   0.00000000  0.00000000  0.00000000
   0.00000000  0.00000000  0.50000000
   0.00000000  0.50000000  0.00000000
   0.00000000  0.50000000  0.50000000
   0.50000000  0.00000000  0.00000000
   0.50000000  0.00000000  0.50000000
   0.50000000  0.50000000  0.00000000
   0.50000000  0.50000000  0.50000000
   0.12500000  0.12500000  0.37500000
   0.12500000  0.12500000  0.87500000
   0.12500000  0.62500000  0.37500000
   0.12500000  0.62500000  0.87500000
   0.62500000  0.12500000  0.37500000
   0.62500000  0.12500000  0.87500000
   0.62500000  0.62500000  0.37500000
   0.62500000  0.62500000  0.87500000
   0.12500000  0.37500000  0.12500000
   0.12500000  0.37500000  0.62500000
   0.12500000  0.87500000  0.12500000
   0.12500000  0.87500000  0.62500000
   0.62500000  0.37500000  0.12500000
   0.62500000  0.37500000  0.62500000
   0.62500000  0.87500000  0.12500000
   0.62500000  0.87500000  0.62500000
   0.37500000  0.12500000  0.12500000
   0.37500000  0.12500000  0.62500000
   0.37500000  0.62500000  0.12500000
   0.37500000  0.62500000  0.62500000
   0.87500000  0.12500000  0.12500000
   0.87500000  0.12500000  0.62500000
   0.87500000  0.62500000  0.12500000
   0.87500000  0.62500000  0.62500000
   0.37500000  0.37500000  0.37500000
   0.37500000  0.37500000  0.87500000
   0.37500000  0.87500000  0.37500000
   0.37500000  0.87500000  0.87500000
   0.87500000  0.37500000  0.37500000
   0.87500000  0.37500000  0.87500000
   0.87500000  0.87500000  0.37500000
   0.87500000  0.87500000  0.87500000
Direct configuration=     2
   0.24889110  0.24980563 -0.00290456
   0.24593590  0.24823550  0.49831881
   0.24865911  0.74988105 -0.00292357
   0.25090290  0.75018922  0.49721837
   0.75292148  0.24656034  0.00560425
   0.75059151  0.24918279  0.49789957
   0.74683988  0.74929575 -0.00015820
   0.74862362  0.75272885  0.50196832
   0.25456155 -0.00118860  0.25010345
   0.24906911 -0.00357425  0.75222223
   0.24575645  0.50183571  0.24946769
   0.24955018  0.49769357  0.75120180
   0.74999145  0.00223636  0.24875772
   0.75094612 -0.00156839  0.75182104
   0.74862876  0.50025460  0.24874074
   0.75001562  0.50083086  0.75087051
   0.00084008  0.24810464  0.24918089
   0.00192253  0.24977854  0.75146840
   0.00241352  0.74601149  0.24834367
  -0.00321638  0.75156694  0.75012042
   0.50152590  0.25428000  0.24383899
   0.50094433  0.24855018  0.74780661
   0.50167956  0.75030993  0.24853275
   0.50039981  0.75058540  0.74744823
   0.00049818  0.00084016  0.00263153
   0.00214702  0.00442141  0.49734932
   0.00003061  0.50176684 -0.00272141
  -0.00023314  0.50135733  0.49948376
   0.49911585 -0.00086754  0.00116825
   0.50208825 -0.00340154  0.50276667
   0.49949810  0.50043909  0.00005352
   0.49886838  0.50102348  0.49953525
   0.12253201  0.12371253  0.37180666
   0.12246981  0.12644270  0.87386391
   0.12397477  0.62693513  0.37453027
   0.12559761  0.62298700  0.87463847
   0.62590893  0.12538507  0.37412233
   0.62378251  0.12631573  0.87785876
   0.62577556  0.62614121  0.37563167
   0.62560322  0.62547567  0.87749162
   0.12533481  0.37564427  0.12440484
   0.12299933  0.37575862  0.62521044
   0.13009361  0.87664011  0.12287025
   0.12329592  0.87387353  0.62785507
   0.62208705  0.37580665  0.12666275
   0.62347908  0.37498910  0.62697846
   0.62848877  0.87336649  0.12925122
   0.62794864  0.86943960  0.62708195
   0.37422965  0.12574310  0.12652867
   0.37478934  0.12905635  0.62444868
   0.37490613  0.62375072  0.12377395
   0.37440129  0.62565648  0.62347323
   0.87336901  0.12518368  0.12765633
   0.87898460  0.12287054  0.62652272
   0.87631247  0.62746581  0.12268011
   0.87646433  0.62590467  0.62173326
   0.37530804  0.37646971  0.37462714
   0.37237833  0.37489748  0.87604272
   0.37047827  0.87580675  0.37556011
   0.37125433  0.86999030  0.87595822
   0.87625268  0.37622608  0.37445514
   0.88012603  0.37461859  0.87759623
   0.87650508  0.87428292  0.37550436
   0.87446140  0.87599809  0.87796545
Direct configuration=     3
   0.24780751  0.24960631 -0.00566776
   0.24194927  0.24660370  0.49661714
   0.24734963  0.74964200 -0.00576456
   0.25158398  0.75045655  0.49453998
   0.75571456  0.24339102  0.01108463
   0.75131173  0.24846012  0.49600593
   0.74384242  0.74867949 -0.00023503
   0.74743427  0.75536244  0.50385294
   0.25896563 -0.00224325  0.25023139
   0.24822556 -0.00691399  0.75440240
   0.24170361  0.50365239  0.24900454
   0.24919356  0.49553708  0.75226088
   0.75003829  0.00452692  0.24772081
   0.75189050 -0.00302679  0.75368764
   0.74735541  0.50067674  0.24758796
   0.75016251  0.50164896  0.75176909
   0.00169481  0.24639406  0.24838523
   0.00382590  0.24964045  0.75290168
   0.00477651  0.74237469  0.24662395
  -0.00632421  0.75307204  0.75035045
   0.50295381  0.25842865  0.23797620
   0.50189811  0.24724879  0.74585391
   0.50320749  0.75069068  0.24710326
   0.50081527  0.75110615  0.74509670
   0.00102981  0.00174652  0.00525808
   0.00430891  0.00865690  0.49483307
   0.00016442  0.50354900 -0.00526606
  -0.00037062  0.50273610  0.49897070
   0.49825944 -0.00176582  0.00240513
   0.50416452 -0.00670192  0.50552782
   0.49902083  0.50088673  0.00008186
   0.49786060  0.50202714  0.49912279
   0.12022237  0.12239884  0.36856528
   0.11997495  0.12774965  0.87278511
   0.12303236  0.62869618  0.37416945
   0.12601456  0.62111363  0.87420641
   0.62664947  0.12569929  0.37313922
   0.62258437  0.12751648  0.88062255
   0.62658388  0.62714620  0.37627485
   0.62606908  0.62591495  0.87983692
   0.12556294  0.37622448  0.12373960
   0.12096623  0.37640033  0.62530298
   0.13501453  0.87823247  0.12084116
   0.12154340  0.87271796  0.63047156
   0.61929917  0.37656214  0.12807153
   0.62201326  0.37499101  0.62881846
   0.63176016  0.87172712  0.13324239
   0.63078409  0.86407028  0.62916677
   0.37346679  0.12648894  0.12790804
   0.37446245  0.13279681  0.62383526
   0.37474750  0.62251658  0.12257754
   0.37379739  0.62616705  0.62204488
   0.87187302  0.12524556  0.13028991
   0.88278096  0.12078681  0.62796148
   0.87749104  0.62980969  0.12028594
   0.87775788  0.62678615  0.61856015
   0.37547759  0.37785372  0.37415119
   0.36994164  0.37464174  0.87706145
   0.36622016  0.87657379  0.37606142
   0.36773261  0.86506953  0.87684334
   0.87747226  0.37732942  0.37385713
   0.88499432  0.37417544  0.88009564
   0.87802747  0.87352838  0.37599003
   0.87386807  0.87691956  0.88089958
Direct configuration=     4
   0.24675161  0.24936130 -0.00819814
   0.23810450  0.24517405  0.49487531
   0.24608390  0.74907447 -0.00839943
   0.25186024  0.75080127  0.49205981
   0.75819280  0.24072844  0.01621063
   0.75215044  0.24783580  0.49441034
   0.74111674  0.74819602 -0.00020416
   0.74654632  0.75773095  0.50549006
   0.26298031 -0.00312228  0.25034758
   0.24749555 -0.00991460  0.75654320
   0.23799912  0.50535977  0.24856171
   0.24892020  0.49356185  0.75309763
   0.75016842  0.00669607  0.24699849
   0.75280860 -0.00431003  0.75558709
   0.74632007  0.50123617  0.24650460
   0.75051086  0.50240153  0.75267496
   0.00253715  0.24496310  0.24760216
   0.00562171  0.24964053  0.75420154
   0.00705734  0.73931086  0.24480698
  -0.00933692  0.75441764  0.75072777
   0.50405950  0.26211909  0.23281657
   0.50278622  0.24613562  0.74424935
   0.50451339  0.75106325  0.24586624
   0.50115925  0.75144907  0.74304853
   0.00156476  0.00279613  0.00783728
   0.00644691  0.01251264  0.49258191
   0.00044765  0.50539758 -0.00751850
  -0.00034112  0.50412597  0.49841150
   0.49745720 -0.00274527  0.00371818
   0.50616677 -0.00980710  0.50824743
   0.49854768  0.50132716  0.00005304
   0.49700713  0.50298858  0.49881771
   0.11821269  0.12111033  0.36523580
   0.11762426  0.12878327  0.87181649
   0.12213651  0.63027889  0.37402840
   0.12622336  0.61945781  0.87364452
   0.62715424  0.12601316  0.37205349
   0.62147089  0.12856517  0.88328201
   0.62732849  0.62814238  0.37689201
   0.62632765  0.62630551  0.88193740
   0.12566661  0.37671834  0.12299464
   0.11896286  0.37689018  0.62529342
   0.13969494  0.87970531  0.11907411
   0.11980529  0.87159650  0.63267553
   0.61701776  0.37746477  0.12900510
   0.62070246  0.37502848  0.63040531
   0.63476811  0.87021129  0.13693715
   0.63343018  0.85912746  0.63133108
   0.37277944  0.12734137  0.12898456
   0.37399045  0.13606033  0.62316461
   0.37446948  0.62141572  0.12142836
   0.37322338  0.62646555  0.62080047
   0.87070069  0.12505038  0.13296671
   0.88628427  0.11885053  0.62930581
   0.87845359  0.63192960  0.11785275
   0.87876829  0.62768843  0.61562296
   0.37543685  0.37909098  0.37354814
   0.36780994  0.37419712  0.87798125
   0.36254615  0.87721754  0.37651321
   0.36461593  0.86041816  0.87752787
   0.87854469  0.37827636  0.37312309
   0.88940391  0.37357145  0.88242792
   0.87953719  0.87280648  0.37631784
   0.87320515  0.87771549  0.88380063
Direct configuration=     5
   0.24565477  0.24904301 -0.01039310
   0.23444563  0.24398717  0.49309384
   0.24476912  0.74810475 -0.01062909
   0.25178667  0.75116322  0.48998212
   0.76025486  0.23866224  0.02084499
   0.75312143  0.24729388  0.49315274
   0.73870855  0.74796179  0.00000908
   0.74614561  0.75969418  0.50668069
   0.26650392 -0.00368744  0.25036519
   0.24682413 -0.01254373  0.75860602
   0.23479274  0.50689295  0.24813565
   0.24879647  0.49172157  0.75366675
   0.75036430  0.00861072  0.24669045
   0.75366204 -0.00537773  0.75750774
   0.74557620  0.50198606  0.24549481
   0.75112735  0.50307221  0.75359279
   0.00328996  0.24397045  0.24673281
   0.00718039  0.24987791  0.75525648
   0.00913381  0.73696911  0.24278294
  -0.01227932  0.75560894  0.75122135
   0.50463983  0.26516429  0.22857966
   0.50354052  0.24519912  0.74306942
   0.50550294  0.75135362  0.24489565
   0.50132366  0.75149615  0.74141010
   0.00212041  0.00399945  0.01035194
   0.00852718  0.01581033  0.49071721
   0.00103493  0.50731593 -0.00942418
  -0.00000609  0.50553158  0.49771273
   0.49670718 -0.00384501  0.00514438
   0.50806035 -0.01263728  0.51085412
   0.49819465  0.50168955 -0.00008174
   0.49645525  0.50390444  0.49858291
   0.11673977  0.11981145  0.36180973
   0.11556212  0.12934415  0.87107212
   0.12130890  0.63158440  0.37421236
   0.12620721  0.61804211  0.87296467
   0.62737039  0.12633226  0.37091657
   0.62049459  0.12945735  0.88583913
   0.62795029  0.62910042  0.37749215
   0.62628685  0.62660059  0.88370875
   0.12563402  0.37706889  0.12212708
   0.11708626  0.37717807  0.62519297
   0.14414441  0.88099251  0.11754145
   0.11818671  0.87058377  0.63442717
   0.61542317  0.37866198  0.12926585
   0.61958322  0.37512647  0.63166254
   0.63753487  0.86889498  0.14023041
   0.63584398  0.85484742  0.63368169
   0.37217594  0.12828854  0.12971804
   0.37337405  0.13874577  0.62246819
   0.37395759  0.62058405  0.12043343
   0.37253522  0.62669558  0.61971645
   0.86994647  0.12459876  0.13565982
   0.88939841  0.11714178  0.63054942
   0.87911692  0.63385133  0.11551368
   0.87932604  0.62873730  0.61308221
   0.37510110  0.38014707  0.37271964
   0.36601944  0.37357731  0.87866113
   0.35965100  0.87766039  0.37700603
   0.36204908  0.85620035  0.87788660
   0.87938741  0.37897820  0.37217258
   0.89317251  0.37268599  0.88450993
   0.88098921  0.87213460  0.37643709
   0.87248338  0.87835269  0.88671467
Direct configuration=     6
   0.24449718  0.24864455 -0.01216709
   0.23100184  0.24307404  0.49125754
   0.24338159  0.74665565 -0.01224186
   0.25138511  0.75150088  0.48850677
   0.76177481  0.23731652  0.02483171
   0.75423282  0.24683951  0.49226535
   0.73676491  0.74808007  0.00053935
   0.74641309  0.76115853  0.50725427
   0.26942900 -0.00383634  0.25022763
   0.24617551 -0.01474012  0.76057797
   0.23210118  0.50827744  0.24776391
   0.24878012  0.49005098  0.75392651
   0.75060756  0.01015521  0.24691428
   0.75443234 -0.00619148  0.75944895
   0.74514201  0.50299431  0.24458665
   0.75203102  0.50360983  0.75447599
   0.00392161  0.24346790  0.24575292
   0.00843090  0.25039419  0.75597749
   0.01109793  0.73537931  0.24061077
  -0.01508877  0.75658933  0.75189213
   0.50446026  0.26733528  0.22548931
   0.50413220  0.24444105  0.74238358
   0.50615477  0.75152167  0.24426957
   0.50130975  0.75118144  0.74032068
   0.00270565  0.00534328  0.01279486
   0.01042769  0.01838591  0.48933449
   0.00198283  0.50925360 -0.01089178
   0.00059185  0.50692347  0.49687864
   0.49602163 -0.00507368  0.00670471
   0.50979963 -0.01515437  0.51331134
   0.49804492  0.50188304 -0.00041928
   0.49621261  0.50474376  0.49839779
   0.11595126  0.11852529  0.35819022
   0.11385895  0.12930427  0.87061153
   0.12046920  0.63257217  0.37456213
   0.12586316  0.61687286  0.87195296
   0.62725976  0.12668625  0.36975680
   0.61969169  0.13016420  0.88829418
   0.62840701  0.62999944  0.37799286
   0.62579034  0.62671537  0.88499561
   0.12543919  0.37728860  0.12106051
   0.11535221  0.37727295  0.62497278
   0.14834127  0.88208481  0.11624849
   0.11670903  0.86969217  0.63567765
   0.61475560  0.38033493  0.12866574
   0.61872849  0.37534098  0.63256626
   0.64003150  0.86782304  0.14311723
   0.63799640  0.85140490  0.63636453
   0.37168008  0.12936934  0.13004280
   0.37259311  0.14077109  0.62172770
   0.37306865  0.62014751  0.11966674
   0.37161280  0.62685038  0.61869642
   0.86978672  0.12386468  0.13841017
   0.89209542  0.11568325  0.63168239
   0.87938920  0.63556840  0.11325720
   0.87939138  0.62991549  0.61095800
   0.37443840  0.38102717  0.37165651
   0.36463330  0.37275711  0.87905998
   0.35774185  0.87788457  0.37762672
   0.36021238  0.85255958  0.87781428
   0.88000295  0.37944138  0.37103097
   0.89621318  0.37145557  0.88633451
   0.88240134  0.87159930  0.37636849
   0.87173863  0.87881816  0.88966250
Direct configuration=     7
   0.24324864  0.24812889 -0.01347952
   0.22778013  0.24245403  0.48935871
   0.24183987  0.74457506 -0.01317298
   0.25055985  0.75171769  0.48771919
   0.76268331  0.23676553  0.02808282
   0.75548214  0.24647053  0.49175701
   0.73532770  0.74859850  0.00142633
   0.74739444  0.76207001  0.50709497
   0.27170294 -0.00354140  0.24989896
   0.24552296 -0.01647480  0.76244309
   0.22995003  0.50954686  0.24746394
   0.24883639  0.48860547  0.75385035
   0.75086355  0.01122844  0.24777002
   0.75510505 -0.00671758  0.76141474
   0.74502286  0.50431309  0.24379970
   0.75320831  0.50401765  0.75533271
   0.00439848  0.24351287  0.24466514
   0.00932579  0.25119481  0.75630633
   0.01298579  0.73459115  0.23826265
  -0.01775181  0.75732508  0.75277275
   0.50339849  0.26853292  0.22364713
   0.50453895  0.24385149  0.74223522
   0.50641902  0.75152051  0.24401463
   0.50104925  0.75041353  0.73985084
   0.00334719  0.00679704  0.01519120
   0.01208923  0.02011695  0.48851851
   0.00324323  0.51115029 -0.01180402
   0.00141274  0.50826080  0.49596284
   0.49542203 -0.00643118  0.00840787
   0.51136334 -0.01732621  0.51560503
   0.49807700  0.50187208 -0.00097855
   0.49626851  0.50551765  0.49828115
   0.11593677  0.11726000  0.35429278
   0.11256268  0.12859665  0.87048081
   0.11966632  0.63325462  0.37503107
   0.12524259  0.61601530  0.87047052
   0.62679450  0.12710800  0.36861954
   0.61907542  0.13065588  0.89066323
   0.62870154  0.63082028  0.37834905
   0.62479782  0.62659735  0.88566912
   0.12506006  0.37742199  0.11973272
   0.11375553  0.37720913  0.62457277
   0.15224920  0.88301380  0.11519890
   0.11539750  0.86896983  0.63638838
   0.61514978  0.38258775  0.12712033
   0.61819826  0.37571823  0.63309630
   0.64226271  0.86702215  0.14561860
   0.63992543  0.84890006  0.63947434
   0.37130456  0.13062460  0.12988883
   0.37162684  0.14207073  0.62093308
   0.37175603  0.62013574  0.11916844
   0.37043660  0.62690470  0.61770807
   0.87035237  0.12285105  0.14121670
   0.89436255  0.11449134  0.63271305
   0.87926500  0.63703097  0.11106843
   0.87896565  0.63117370  0.60927220
   0.37342223  0.38174565  0.37034133
   0.36372431  0.37173325  0.87916394
   0.35696923  0.87791427  0.37840831
   0.35923399  0.84958175  0.87722538
   0.88040140  0.37967177  0.36970270
   0.89848726  0.36987209  0.88794540
   0.88381233  0.87126584  0.37608640
   0.87098815  0.87912378  0.89268049
Direct configuration=     8
   0.24189055  0.24744743 -0.01427798
   0.22479954  0.24213111  0.48739190
   0.24006986  0.74172885 -0.01335736
   0.24921017  0.75173913  0.48771933
   0.76296503  0.23703073  0.03057833
   0.75686652  0.24619066  0.49164526
   0.73432344  0.74947710  0.00262926
   0.74902601  0.76244065  0.50612645
   0.27332697 -0.00281179  0.24939370
   0.24486228 -0.01772408  0.76419083
   0.22832214  0.51070291  0.24722485
   0.24888763  0.48742726  0.75341022
   0.75110712  0.01177270  0.24935265
   0.75567984 -0.00692690  0.76341449
   0.74522100  0.50596627  0.24311577
   0.75462486  0.50430546  0.75618196
   0.00471925  0.24417769  0.24343242
   0.00986671  0.25227248  0.75620618
   0.01481894  0.73464346  0.23570959
  -0.02031700  0.75777903  0.75387314
   0.50151421  0.26882419  0.22301989
   0.50475171  0.24342692  0.74264040
   0.50627615  0.75134566  0.24417133
   0.50044621  0.74910284  0.74003175
   0.00405229  0.00832839  0.01755914
   0.01350794  0.02096139  0.48829410
   0.00467414  0.51291621 -0.01208527
   0.00235679  0.50953838  0.49503336
   0.49493492 -0.00791973  0.01026024
   0.51274805 -0.01910937  0.51774698
   0.49816461  0.50164235 -0.00173862
   0.49656860  0.50622832  0.49823289
   0.11673404  0.11600037  0.35008145
   0.11167448  0.12718677  0.87068802
   0.11892121  0.63362415  0.37556084
   0.12441808  0.61546611  0.86835019
   0.62594608  0.12760920  0.36752532
   0.61865314  0.13092309  0.89295661
   0.62884579  0.63157874  0.37857353
   0.62337600  0.62624870  0.88566480
   0.12448068  0.37751306  0.11815394
   0.11232019  0.37701407  0.62397021
   0.15583879  0.88380777  0.11440570
   0.11428102  0.86843573  0.63650912
   0.61660894  0.38537607  0.12469083
   0.61804899  0.37628368  0.63326365
   0.64421297  0.86651325  0.14777727
   0.64174721  0.84738537  0.64303048
   0.37104752  0.13210093  0.12917983
   0.37045821  0.14261777  0.62006736
   0.37001234  0.62047953  0.11888955
   0.36902872  0.62681327  0.61672266
   0.87170385  0.12159520  0.14404912
   0.89618378  0.11356650  0.63364558
   0.87879798  0.63816563  0.10893510
   0.87812103  0.63241320  0.60803133
   0.37203934  0.38233535  0.36880796
   0.36339297  0.37054731  0.87897604
   0.35746012  0.87781729  0.37931707
   0.35923480  0.84734141  0.87601965
   0.88060006  0.37968994  0.36820600
   0.90000610  0.36800230  0.88944507
   0.88525802  0.87117558  0.37557000
   0.87028108  0.87931696  0.89580853
Direct configuration=     9
   0.24039759  0.24658413 -0.01453839
   0.22208408  0.24211172  0.48536598
   0.23802915  0.73811106 -0.01282070
   0.24721268  0.75154756  0.48852764
   0.76263203  0.23810649  0.03235274
   0.75836384  0.24599454  0.49193762
   0.73357982  0.75064397  0.00405868
   0.75115533  0.76238532  0.50435797
   0.27438364 -0.00163632  0.24876592
   0.24421967 -0.01846769  0.76582687
   0.22725240  0.51171119  0.24702878
   0.24892818  0.48649224  0.75257495
   0.75132741  0.01173556  0.25174383
   0.75616221 -0.00677960  0.76546900
   0.74576245  0.50796248  0.24250502
   0.75625899  0.50447157  0.75704333
   0.00491067  0.24552727  0.24202922
   0.01007157  0.25356898  0.75567685
   0.01658292  0.73557725  0.23289071
  -0.02288505  0.75792562  0.75520652
   0.49901101  0.26841695  0.22348214
   0.50475317  0.24316765  0.74360965
   0.50568296  0.75099772  0.24477226
   0.49938408  0.74716798  0.74084309
   0.00483334  0.00990449  0.01990873
   0.01472358  0.02092205  0.48862896
   0.00612946  0.51448249 -0.01168183
   0.00332110  0.51070976  0.49412287
   0.49456245 -0.00952673  0.01227693
   0.51396666 -0.02046479  0.51975577
   0.49811796  0.50127449 -0.00263281
   0.49708419  0.50687841  0.49825132
   0.11831621  0.11470342  0.34555368
   0.11115128  0.12507471  0.87121283
   0.11824962  0.63373046  0.37612942
   0.12344152  0.61526397  0.86552705
   0.62469012  0.12820378  0.36650755
   0.61843047  0.13094623  0.89520624
   0.62885704  0.63227281  0.37870033
   0.62164487  0.62572493  0.88502084
   0.12368581  0.37757486  0.11632375
   0.11106835  0.37670361  0.62312549
   0.15907953  0.88442703  0.11380160
   0.11338700  0.86809749  0.63596585
   0.61903813  0.38851215  0.12155874
   0.61833175  0.37704173  0.63307657
   0.64590130  0.86631543  0.14960020
   0.64361791  0.84684364  0.64696529
   0.37090931  0.13377255  0.12784416
   0.36907502  0.14239485  0.61912119
   0.36793198  0.62103872  0.11873391
   0.36745577  0.62653949  0.61578491
   0.87382425  0.12015176  0.14683949
   0.89754099  0.11292093  0.63448974
   0.87809395  0.63890328  0.10689466
   0.87694705  0.63354080  0.60728992
   0.37026872  0.38281471  0.36707293
   0.36369608  0.36923145  0.87847335
   0.35927665  0.87765392  0.38028582
   0.36021362  0.84581846  0.87420066
   0.88062365  0.37953754  0.36657113
   0.90078776  0.36592704  0.89093183
   0.88678263  0.87135905  0.37478903
   0.86968211  0.87945539  0.89906227
Direct configuration=    10
   0.23878423  0.24556411 -0.01429138
   0.21964521  0.24238357  0.48326851
   0.23581405  0.73384690 -0.01170991
   0.24450348  0.75122147  0.49009550
   0.76176333  0.23992982  0.03345240
   0.75996244  0.24588277  0.49263098
   0.73297787  0.75205072  0.00561930
   0.75359782  0.76204139  0.50186900
   0.27500028 -0.00002699  0.24803298
   0.24358428 -0.01869628  0.76729932
   0.22677183  0.51253185  0.24681710
   0.24895685  0.48578989  0.75128039
   0.75155047  0.01110433  0.25501658
   0.75658008 -0.00624389  0.76762603
   0.74667815  0.51030415  0.24197034
   0.75811190  0.50450439  0.75792990
   0.00501736  0.24758462  0.24046313
   0.00995058  0.25497911  0.75477176
   0.01826858  0.73743630  0.22975112
  -0.02550081  0.75775901  0.75675453
   0.49612456  0.26757110  0.22490005
   0.50450915  0.24307216  0.74512643
   0.50457154  0.75046870  0.24581380
   0.49782462  0.74455932  0.74221846
   0.00572521  0.01146196  0.02225949
   0.01581227  0.02002479  0.48945098
   0.00755041  0.51578604 -0.01060990
   0.00420481  0.51171987  0.49328282
   0.49429498 -0.01126052  0.01445387
   0.51501806 -0.02136676  0.52164228
   0.49780214  0.50082597 -0.00365073
   0.49779359  0.50743381  0.49831920
   0.12059624  0.11335826  0.34077202
   0.11095418  0.12230407  0.87200938
   0.11766779  0.63364413  0.37669651
   0.12229807  0.61542373  0.86194281
   0.62298901  0.12890922  0.36560936
   0.61841372  0.13071228  0.89744096
   0.62874993  0.63289723  0.37873385
   0.61967716  0.62506884  0.88375831
   0.12269932  0.37763640  0.11424315
   0.11003686  0.37630787  0.62198699
   0.16194504  0.88487359  0.11333698
   0.11274225  0.86798431  0.63476148
   0.62228541  0.39176886  0.11793896
   0.61907951  0.37797930  0.63254844
   0.64730493  0.86644486  0.15111258
   0.64566404  0.84719527  0.65118853
   0.37085792  0.13555709  0.12584646
   0.36748426  0.14138649  0.61813084
   0.36560288  0.62173173  0.11871759
   0.36575529  0.62603407  0.61496387
   0.87662307  0.11860577  0.14951941
   0.89841548  0.11257018  0.63524769
   0.87723648  0.63922930  0.10501394
   0.87551617  0.63445682  0.60712248
   0.36809596  0.38319104  0.36515197
   0.36464256  0.36774734  0.87766733
   0.36242801  0.87743246  0.38130408
   0.36204228  0.84490923  0.87193766
   0.88047055  0.37925649  0.36481526
   0.90082211  0.36369600  0.89247965
   0.88843621  0.87185734  0.37369411
   0.86921800  0.87958680  0.90245302
Direct configuration=    11
   0.23708445  0.24440239 -0.01358758
   0.21747686  0.24290277  0.48108053
   0.23353075  0.72906763 -0.01023835
   0.24111963  0.75089203  0.49233494
   0.76046502  0.24237397  0.03393048
   0.76165338  0.24586025  0.49369866
   0.73239918  0.75364477  0.00719334
   0.75618335  0.76153430  0.49873181
   0.27532557  0.00192874  0.24718494
   0.24294049 -0.01846397  0.76851395
   0.22687262  0.51311530  0.24653851
   0.24895991  0.48530120  0.74945642
   0.75185073  0.00989173  0.25922065
   0.75696313 -0.00530157  0.76996248
   0.74798636  0.51297009  0.24151586
   0.76016923  0.50436394  0.75884363
   0.00510690  0.25032309  0.23876008
   0.00949478  0.25635838  0.75356326
   0.01989645  0.74023116  0.22623582
  -0.02813558  0.75731986  0.75842687
   0.49306492  0.26652712  0.22716629
   0.50399207  0.24312795  0.74713852
   0.50287977  0.74977562  0.24724268
   0.49584011  0.74128716  0.74400972
   0.00675065  0.01289833  0.02462231
   0.01683232  0.01827412  0.49065352
   0.00888254  0.51674896 -0.00892956
   0.00486763  0.51250171  0.49259198
   0.49412509 -0.01313992  0.01675872
   0.51586009 -0.02180957  0.52340586
   0.49708448  0.50029865 -0.00479776
   0.49865313  0.50783501  0.49840882
   0.12344188  0.11201153  0.33583547
   0.11104629  0.11898818  0.87302501
   0.11721170  0.63344093  0.37715887
   0.12099011  0.61595910  0.85756485
   0.62082360  0.12974786  0.36489360
   0.61860421  0.13021911  0.89967981
   0.62856198  0.63345264  0.37867530
   0.61755387  0.62432008  0.88189990
   0.12157051  0.37775501  0.11194294
   0.10929784  0.37588615  0.62050576
   0.16443443  0.88519103  0.11301530
   0.11232499  0.86813386  0.63301216
   0.62621232  0.39497615  0.11403202
   0.62031268  0.37908636  0.63173128
   0.64833856  0.86690884  0.15238960
   0.64792714  0.84833204  0.65562997
   0.37084208  0.13737206  0.12316139
   0.36571239  0.13958783  0.61714053
   0.36312564  0.62251241  0.11890016
   0.36394566  0.62524041  0.61431219
   0.87993412  0.11705759  0.15203840
   0.89879302  0.11253706  0.63592889
   0.87632847  0.63913716  0.10336912
   0.87390020  0.63505131  0.60759133
   0.36553697  0.38349655  0.36307666
   0.36622821  0.36607997  0.87658371
   0.36687283  0.87712923  0.38240518
   0.36453244  0.84452620  0.86948259
   0.88013263  0.37891540  0.36297095
   0.90010827  0.36137741  0.89415049
   0.89026125  0.87273220  0.37226301
   0.86891772  0.87979717  0.90599617
Direct configuration=    12
   0.23534037  0.24311231 -0.01250576
   0.21559389  0.24362111  0.47880015
   0.23123378  0.72392533 -0.00869345
   0.23713560  0.75066581  0.49512143
   0.75884887  0.24526325  0.03384651
   0.76339866  0.24592567  0.49509682
   0.73170076  0.75534692  0.00859833
   0.75876871  0.76099793  0.49496131
   0.27557317  0.00410084  0.24621569
   0.24232511 -0.01785530  0.76934836
   0.22754132  0.51340404  0.24613097
   0.24896280  0.48497472  0.74704324
   0.75231507  0.00813060  0.26435032
   0.75734382 -0.00393016  0.77253451
   0.74970902  0.51591119  0.24110537
   0.76241335  0.50400330  0.75978570
   0.00526410  0.25369043  0.23697203
   0.00870681  0.25754287  0.75214479
   0.02150230  0.74391161  0.22231905
  -0.03075161  0.75670784  0.76010820
   0.48999216  0.26546894  0.23019227
   0.50322168  0.24331273  0.74955108
   0.50058658  0.74897969  0.24896140
   0.49354026  0.73742259  0.74598929
   0.00793823  0.01410757  0.02703492
   0.01782549  0.01568198  0.49212427
   0.01004669  0.51728794 -0.00670799
   0.00511955  0.51295900  0.49216023
   0.49405637 -0.01517620  0.01915551
   0.51645880 -0.02180222  0.52505233
   0.49584180  0.49966228 -0.00604891
   0.49960160  0.50801654  0.49850148
   0.12664041  0.11076058  0.33084769
   0.11136831  0.11529433  0.87420741
   0.11692959  0.63329727  0.37737037
   0.11954363  0.61691720  0.85239948
   0.61820375  0.13074167  0.36445246
   0.61898421  0.12946725  0.90194036
   0.62834805  0.63397557  0.37856846
   0.61543071  0.62355376  0.87952950
   0.12036412  0.37799812  0.10947431
   0.10893146  0.37551592  0.61862472
   0.16651453  0.88542313  0.11284247
   0.11204180  0.86855531  0.63091063
   0.63069743  0.39806990  0.11001400
   0.62203770  0.38032388  0.63068948
   0.64885114  0.86770769  0.15353979
   0.65035224  0.85011283  0.66021927
   0.37083887  0.13912544  0.11977914
   0.36377419  0.13699886  0.61620682
   0.36065262  0.62330702  0.11936555
   0.36207779  0.62412173  0.61387802
   0.88353574  0.11556503  0.15436215
   0.89865518  0.11283238  0.63652568
   0.87547699  0.63861755  0.10205473
   0.87220478  0.63522738  0.60876215
   0.36262155  0.38376481  0.36090849
   0.36839934  0.36423847  0.87524697
   0.37250859  0.87671578  0.38363353
   0.36750069  0.84459752  0.86708500
   0.87961433  0.37859938  0.36109823
   0.89865581  0.35907015  0.89598242
   0.89227195  0.87401221  0.37053798
   0.86881739  0.88012076  0.90969331
Direct configuration=    13
   0.23359287  0.24172361 -0.01116227
   0.21405353  0.24450848  0.47643328
   0.22901519  0.71863105 -0.00728462
   0.23277179  0.75061528  0.49837211
   0.75703145  0.24839538  0.03324165
   0.76513179  0.24608735  0.49677834
   0.73081752  0.75708629  0.00972661