nqpoint: 153    
npath: 3      
segment_nqpoint:
- 51
- 51
- 51
labels:
- [ '$\Gamma$', 'K' ]
- [ 'K', 'M' ]
- [ 'M', '$\Gamma$' ]
reciprocal_lattice:
- [   0.28172794,   0.16265570,   0.00000000 ] # a*
- [   0.00000000,   0.32531141,   0.00000000 ] # b*
- [   0.00000000,   0.00000000,   0.05000000 ] # c*
natom: 3      
lattice:
- [     3.549523652261799,     0.000000000000000,     0.000000000000000 ] # a
- [    -1.774761826081029,     3.073977654199909,     0.000000000000000 ] # b
- [     0.000000000000000,     0.000000000000000,    20.000000000000000 ] # c
points:
- symbol: Mo # 1
  coordinates: [  0.333333343000000,  0.666666687000003,  0.499999993000003 ]
  mass: 95.960000
- symbol: Te # 2
  coordinates: [  0.666666687000003,  0.333333343000000,  0.409723437189734 ]
  mass: 127.600000
- symbol: Te # 3
  coordinates: [  0.666666687000003,  0.333333343000000,  0.590276562810266 ]
  mass: 127.600000

phonon:
- q-position: [    0.0000000,    0.0000000,    0.0000000 ]
  distance:    0.0000000
  band:
  - # 1
    frequency:   -0.0669514822
  - # 2
    frequency:   -0.0669514818
  - # 3
    frequency:   -0.0110259236
  - # 4
    frequency:  114.5101424288
  - # 5
    frequency:  114.5101424304
  - # 6
    frequency:  170.0395533176
  - # 7
    frequency:  230.3056657361
  - # 8
    frequency:  230.3056657370
  - # 9
    frequency:  285.2045105853

- q-position: [    0.0066667,    0.0066667,    0.0000000 ]
  distance:    0.0037564
  band:
  - # 1
    frequency:    3.5092808946
  - # 2
    frequency:    3.5092808947
  - # 3
    frequency:    4.3466098567
  - # 4
    frequency:  114.5101424288
  - # 5
    frequency:  114.5101424304
  - # 6
    frequency:  170.0395533176
  - # 7
    frequency:  230.2789181302
  - # 8
    frequency:  230.2789181311
  - # 9
    frequency:  285.1713865720

- q-position: [    0.0133333,    0.0133333,    0.0000000 ]
  distance:    0.0075127
  band:
  - # 1
    frequency:    7.0173460777
  - # 2
    frequency:    7.0173460777
  - # 3
    frequency:    8.6905490540
  - # 4
    frequency:  114.5101424288
  - # 5
    frequency:  114.5101424304
  - # 6
    frequency:  170.0395533176
  - # 7
    frequency:  230.1987229366
  - # 8
    frequency:  230.1987229375
  - # 9
    frequency:  285.0720735073

- q-position: [    0.0200000,    0.0200000,    0.0000000 ]
  distance:    0.0112691
  band:
  - # 1
    frequency:   10.5208486696
  - # 2
    frequency:   10.5208486698
  - # 3
    frequency:   13.0290970625
  - # 4
    frequency:  114.5101424288
  - # 5
    frequency:  114.5101424304
  - # 6
    frequency:  170.0395533176
  - # 7
    frequency:  230.0652232105
  - # 8
    frequency:  230.0652232114
  - # 9
    frequency:  284.9067485448

- q-position: [    0.0266667,    0.0266667,    0.0000000 ]
  distance:    0.0150255
  band:
  - # 1
    frequency:   14.0177668605
  - # 2
    frequency:   14.0177668606
  - # 3
    frequency:   17.3595559249
  - # 4
    frequency:  114.5101424288
  - # 5
    frequency:  114.5101424304
  - # 6
    frequency:  170.0395533176
  - # 7
    frequency:  229.8786579913
  - # 8
    frequency:  229.8786579922
  - # 9
    frequency:  284.6757077004

- q-position: [    0.0333333,    0.0333333,    0.0000000 ]
  distance:    0.0187819
  band:
  - # 1
    frequency:   17.5059430753
  - # 2
    frequency:   17.5059430755
  - # 3
    frequency:   21.6792149435
  - # 4
    frequency:  114.5101424288
  - # 5
    frequency:  114.5101424304
  - # 6
    frequency:  170.0395533176
  - # 7
    frequency:  229.6393632300
  - # 8
    frequency:  229.6393632309
  - # 9
    frequency:  284.3793670013

- q-position: [    0.0400000,    0.0400000,    0.0000000 ]
  distance:    0.0225382
  band:
  - # 1
    frequency:   20.9831875910
  - # 2
    frequency:   20.9831875912
  - # 3
    frequency:   25.9853495026
  - # 4
    frequency:  114.5101424288
  - # 5
    frequency:  114.5101424304
  - # 6
    frequency:  170.0395533176
  - # 7
    frequency:  229.3477731005
  - # 8
    frequency:  229.3477731014
  - # 9
    frequency:  284.0182641096

- q-position: [    0.0466667,    0.0466667,    0.0000000 ]
  distance:    0.0262946
  band:
  - # 1
    frequency:   24.4472907699
  - # 2
    frequency:   24.4472907702
  - # 3
    frequency:   30.2752177234
  - # 4
    frequency:  114.5101424288
  - # 5
    frequency:  114.5101424304
  - # 6
    frequency:  170.0395533176
  - # 7
    frequency:  229.0044217076
  - # 8
    frequency:  229.0044217085
  - # 9
    frequency:  283.5930604377

- q-position: [    0.0533333,    0.0533333,    0.0000000 ]
  distance:    0.0300510
  band:
  - # 1
    frequency:   27.8960237185
  - # 2
    frequency:   27.8960237188
  - # 3
    frequency:   34.5460566551
  - # 4
    frequency:  114.5101424288
  - # 5
    frequency:  114.5101424304
  - # 6
    frequency:  170.0395533176
  - # 7
    frequency:  228.6099452087
  - # 8
    frequency:  228.6099452096
  - # 9
    frequency:  283.1045437753

- q-position: [    0.0600000,    0.0600000,    0.0000000 ]
  distance:    0.0338074
  band:
  - # 1
    frequency:   31.3271362002
  - # 2
    frequency:   31.3271362005
  - # 3
    frequency:   38.7950781504
  - # 4
    frequency:  114.5101424288
  - # 5
    frequency:  114.5101424304
  - # 6
    frequency:  170.0395533176
  - # 7
    frequency:  228.1650843690
  - # 8
    frequency:  228.1650843699
  - # 9
    frequency:  282.5536314542

- q-position: [    0.0666667,    0.0666667,    0.0000000 ]
  distance:    0.0375637
  band:
  - # 1
    frequency:   34.7383535384
  - # 2
    frequency:   34.7383535388
  - # 3
    frequency:   43.0194644133
  - # 4
    frequency:  114.5101424288
  - # 5
    frequency:  114.5101424304
  - # 6
    frequency:  170.0395533176
  - # 7
    frequency:  227.6706875754
  - # 8
    frequency:  227.6706875763
  - # 9
    frequency:  281.9413740802

- q-position: [    0.0733333,    0.0733333,    0.0000000 ]
  distance:    0.0413201
  band:
  - # 1
    frequency:   38.1273729520
  - # 2
    frequency:   38.1273729524
  - # 3
    frequency:   47.2163631808
  - # 4
    frequency:  114.5101424288
  - # 5
    frequency:  114.5101424304
  - # 6
    frequency:  170.0395533176
  - # 7
    frequency:  227.1277143358
  - # 8
    frequency:  227.1277143367
  - # 9
    frequency:  281.2689598669

- q-position: [    0.0800000,    0.0800000,    0.0000000 ]
  distance:    0.0450765
  band:
  - # 1
    frequency:   41.4918594399
  - # 2
    frequency:   41.4918594404
  - # 3
    frequency:   51.3828824869
  - # 4
    frequency:  114.5101424288
  - # 5
    frequency:  114.5101424304
  - # 6
    frequency:  170.0395533176
  - # 7
    frequency:  226.5372392960
  - # 8
    frequency:  226.5372392968
  - # 9
    frequency:  280.5377196100

- q-position: [    0.0866667,    0.0866667,    0.0000000 ]
  distance:    0.0488328
  band:
  - # 1
    frequency:   44.8294412341
  - # 2
    frequency:   44.8294412345
  - # 3
    frequency:   55.5160849558
  - # 4
    frequency:  114.5101424288
  - # 5
    frequency:  114.5101424304
  - # 6
    frequency:  170.0395533176
  - # 7
    frequency:  225.9004568085
  - # 8
    frequency:  225.9004568093
  - # 9
    frequency:  279.7491323451

- q-position: [    0.0933333,    0.0933333,    0.0000000 ]
  distance:    0.0525892
  band:
  - # 1
    frequency:   48.1377047998
  - # 2
    frequency:   48.1377048003
  - # 3
    frequency:   59.6129815679
  - # 4
    frequency:  114.5101424288
  - # 5
    frequency:  114.5101424304
  - # 6
    frequency:  170.0395533176
  - # 7
    frequency:  225.2186860903
  - # 8
    frequency:  225.2186860911
  - # 9
    frequency:  278.9048317352

- q-position: [    0.1000000,    0.1000000,    0.0000000 ]
  distance:    0.0563456
  band:
  - # 1
    frequency:   51.4141893505
  - # 2
    frequency:   51.4141893510
  - # 3
    frequency:   63.6705248403
  - # 4
    frequency:  114.5101424288
  - # 5
    frequency:  114.5101424304
  - # 6
    frequency:  170.0395533176
  - # 7
    frequency:  224.4933770094
  - # 8
    frequency:  224.4933770102
  - # 9
    frequency:  278.0066132364

- q-position: [    0.1066667,    0.1066667,    0.0000000 ]
  distance:    0.0601020
  band:
  - # 1
    frequency:   54.6563808347
  - # 2
    frequency:   54.6563808353
  - # 3
    frequency:   67.6856013653
  - # 4
    frequency:  114.5101424288
  - # 5
    frequency:  114.5101424304
  - # 6
    frequency:  170.0395533176
  - # 7
    frequency:  223.7261165392
  - # 8
    frequency:  223.7261165399
  - # 9
    frequency:  277.0564420916

- q-position: [    0.1133333,    0.1133333,    0.0000000 ]
  distance:    0.0638583
  band:
  - # 1
    frequency:   57.8617053569
  - # 2
    frequency:   57.8617053575
  - # 3
    frequency:   71.6550236515
  - # 4
    frequency:  114.5101424288
  - # 5
    frequency:  114.5101424304
  - # 6
    frequency:  170.0395533176
  - # 7
    frequency:  222.9186359209
  - # 8
    frequency:  222.9186359217
  - # 9
    frequency:  276.0564621996

- q-position: [    0.1200000,    0.1200000,    0.0000000 ]
  distance:    0.0676147
  band:
  - # 1
    frequency:   61.0275219912
  - # 2
    frequency:   61.0275219918
  - # 3
    frequency:   75.5755212174
  - # 4
    frequency:  114.5101424288
  - # 5
    frequency:  114.5101424304
  - # 6
    frequency:  170.0395533176
  - # 7
    frequency:  222.0728185692
  - # 8
    frequency:  222.0728185699
  - # 9
    frequency:  275.0090059059

- q-position: [    0.1266667,    0.1266667,    0.0000000 ]
  distance:    0.0713711
  band:
  - # 1
    frequency:   64.1511149581
  - # 2
    frequency:   64.1511149588
  - # 3
    frequency:   79.4437308987
  - # 4
    frequency:  114.5101424288
  - # 5
    frequency:  114.5101424304
  - # 6
    frequency:  170.0395533176
  - # 7
    frequency:  221.1907087499
  - # 8
    frequency:  221.1907087506
  - # 9
    frequency:  273.9166047495

- q-position: [    0.1333333,    0.1333333,    0.0000000 ]
  distance:    0.0751275
  band:
  - # 1
    frequency:   67.2296851431
  - # 2
    frequency:   67.2296851439
  - # 3
    frequency:   83.2561863409
  - # 4
    frequency:  114.5101424288
  - # 5
    frequency:  114.5101424304
  - # 6
    frequency:  170.0395533176
  - # 7
    frequency:  220.2745210486
  - # 8
    frequency:  220.2745210493
  - # 9
    frequency:  272.7820011889

- q-position: [    0.1400000,    0.1400000,    0.0000000 ]
  distance:    0.0788838
  band:
  - # 1
    frequency:   70.2603409557
  - # 2
    frequency:   70.2603409565
  - # 3
    frequency:   87.0093066766
  - # 4
    frequency:  114.5101424288
  - # 5
    frequency:  114.5101424304
  - # 6
    frequency:  170.0395533176
  - # 7
    frequency:  219.3266506296
  - # 8
    frequency:  219.3266506303
  - # 9
    frequency:  271.6081613065

- q-position: [    0.1466667,    0.1466667,    0.0000000 ]
  distance:    0.0826402
  band:
  - # 1
    frequency:   73.2400885523
  - # 2
    frequency:   73.2400885531
  - # 3
    frequency:   90.6993844156
  - # 4
    frequency:  114.5101424288
  - # 5
    frequency:  114.5101424304
  - # 6
    frequency:  170.0395533176
  - # 7
    frequency:  218.3496842601
  - # 8
    frequency:  218.3496842608
  - # 9
    frequency:  270.3982884622

- q-position: [    0.1533333,    0.1533333,    0.0000000 ]
  distance:    0.0863966
  band:
  - # 1
    frequency:   76.1658214850
  - # 2
    frequency:   76.1658214858
  - # 3
    frequency:   94.3225726236
  - # 4
    frequency:  114.5101424288
  - # 5
    frequency:  114.5101424304
  - # 6
    frequency:  170.0395533176
  - # 7
    frequency:  217.3464120365
  - # 8
    frequency:  217.3464120372
  - # 9
    frequency:  269.1558378157

- q-position: [    0.1600000,    0.1600000,    0.0000000 ]
  distance:    0.0901529
  band:
  - # 1
    frequency:   79.0343098880
  - # 2
    frequency:   79.0343098889
  - # 3
    frequency:   97.8748715293
  - # 4
    frequency:  114.5101424288
  - # 5
    frequency:  114.5101424304
  - # 6
    frequency:  170.0395533176
  - # 7
    frequency:  216.3198397007
  - # 8
    frequency:  216.3198397014
  - # 9
    frequency:  267.8845315798

- q-position: [    0.1666667,    0.1666667,    0.0000000 ]
  distance:    0.0939093
  band:
  - # 1
    frequency:   81.8421893854
  - # 2
    frequency:   81.8421893864
  - # 3
    frequency:  101.3521147854
  - # 4
    frequency:  114.5101424288
  - # 5
    frequency:  114.5101424304
  - # 6
    frequency:  170.0395533176
  - # 7
    frequency:  215.2732013610
  - # 8
    frequency:  215.2732013617
  - # 9
    frequency:  266.5883747750

- q-position: [    0.1733333,    0.1733333,    0.0000000 ]
  distance:    0.0976657
  band:
  - # 1
    frequency:   84.5859499939
  - # 2
    frequency:   84.5859499949
  - # 3
    frequency:  104.7499557240
  - # 4
    frequency:  114.5101424288
  - # 5
    frequency:  114.5101424304
  - # 6
    frequency:  170.0395533176
  - # 7
    frequency:  214.2099723432
  - # 8
    frequency:  214.2099723437
  - # 9
    frequency:  265.2716711457

- q-position: [    0.1800000,    0.1800000,    0.0000000 ]
  distance:    0.1014221
  band:
  - # 1
    frequency:   87.2619254177
  - # 2
    frequency:   87.2619254187
  - # 3
    frequency:  108.0638540967
  - # 4
    frequency:  114.5101424288
  - # 5
    frequency:  114.5101424304
  - # 6
    frequency:  170.0395533176
  - # 7
    frequency:  213.1338817739
  - # 8
    frequency:  213.1338817745
  - # 9
    frequency:  263.9390387464

- q-position: [    0.1866667,    0.1866667,    0.0000000 ]
  distance:    0.1051784
  band:
  - # 1
    frequency:   89.8662832851
  - # 2
    frequency:   89.8662832862
  - # 3
    frequency:  111.2890639814
  - # 4
    frequency:  114.5101424288
  - # 5
    frequency:  114.5101424304
  - # 6
    frequency:  170.0395533176
  - # 7
    frequency:  212.0489243457
  - # 8
    frequency:  212.0489243462
  - # 9
    frequency:  262.5954245122

- q-position: [    0.1933333,    0.1933333,    0.0000000 ]
  distance:    0.1089348
  band:
  - # 1
    frequency:   92.3950170721
  - # 2
    frequency:   92.3950170732
  - # 3
    frequency:  114.4206237767
  - # 4
    frequency:  114.5101424288
  - # 5
    frequency:  114.5101424304
  - # 6
    frequency:  170.0395533176
  - # 7
    frequency:  210.9593705145
  - # 8
    frequency:  210.9593705150
  - # 9
    frequency:  261.2461168920

- q-position: [    0.2000000,    0.2000000,    0.0000000 ]
  distance:    0.1126912
  band:
  - # 1
    frequency:   94.8439406938
  - # 2
    frequency:   94.8439406949
  - # 3
    frequency:  114.5101424288
  - # 4
    frequency:  114.5101424304
  - # 5
    frequency:  117.4533495001
  - # 6
    frequency:  170.0395533176
  - # 7
    frequency:  209.8697741489
  - # 8
    frequency:  209.8697741494
  - # 9
    frequency:  259.8967553238

- q-position: [    0.2066667,    0.2066667,    0.0000000 ]
  distance:    0.1164476
  band:
  - # 1
    frequency:   97.2086870254
  - # 2
    frequency:   97.2086870266
  - # 3
    frequency:  114.5101424288
  - # 4
    frequency:  114.5101424304
  - # 5
    frequency:  120.3818329524
  - # 6
    frequency:  170.0395533176
  - # 7
    frequency:  208.7849763619
  - # 8
    frequency:  208.7849763623
  - # 9
    frequency:  258.5533349846

- q-position: [    0.2133333,    0.2133333,    0.0000000 ]
  distance:    0.1202039
  band:
  - # 1
    frequency:   99.4847119361
  - # 2
    frequency:   99.4847119373
  - # 3
    frequency:  114.5101424288
  - # 4
    frequency:  114.5101424304
  - # 5
    frequency:  123.2004467080
  - # 6
    frequency:  170.0395533176
  - # 7
    frequency:  207.7101039396
  - # 8
    frequency:  207.7101039401
  - # 9
    frequency:  257.2222048494

- q-position: [    0.2200000,    0.2200000,    0.0000000 ]
  distance:    0.1239603
  band:
  - # 1
    frequency:  101.6673057622
  - # 2
    frequency:  101.6673057635
  - # 3
    frequency:  114.5101424288
  - # 4
    frequency:  114.5101424304
  - # 5
    frequency:  125.9033583176
  - # 6
    frequency:  170.0395533176
  - # 7
    frequency:  206.6505604316
  - # 8
    frequency:  206.6505604320
  - # 9
    frequency:  255.9100566624

- q-position: [    0.2266667,    0.2266667,    0.0000000 ]
  distance:    0.1277167
  band:
  - # 1
    frequency:  103.7516144904
  - # 2
    frequency:  103.7516144917
  - # 3
    frequency:  114.5101424288
  - # 4
    frequency:  114.5101424304
  - # 5
    frequency:  128.4845565359
  - # 6
    frequency:  170.0395533176
  - # 7
    frequency:  205.6120076218
  - # 8
    frequency:  205.6120076221
  - # 9
    frequency:  254.6239019974

- q-position: [    0.2333333,    0.2333333,    0.0000000 ]
  distance:    0.1314730
  band:
  - # 1
    frequency:  105.7326732179
  - # 2
    frequency:  105.7326732192
  - # 3
    frequency:  114.5101424288
  - # 4
    frequency:  114.5101424304
  - # 5
    frequency:  130.9378927521
  - # 6
    frequency:  170.0395533176
  - # 7
    frequency:  204.6003348038
  - # 8
    frequency:  204.6003348041
  - # 9
    frequency:  253.3710342132

- q-position: [    0.2400000,    0.2400000,    0.0000000 ]
  distance:    0.1352294
  band:
  - # 1
    frequency:  107.6054546320
  - # 2
    frequency:  107.6054546334
  - # 3
    frequency:  114.5101424288
  - # 4
    frequency:  114.5101424304
  - # 5
    frequency:  133.2571410216
  - # 6
    frequency:  170.0395533176
  - # 7
    frequency:  203.6216130991
  - # 8
    frequency:  203.6216130994
  - # 9
    frequency:  252.1589718875

- q-position: [    0.2466667,    0.2466667,    0.0000000 ]
  distance:    0.1389858
  band:
  - # 1
    frequency:  109.3649352216
  - # 2
    frequency:  109.3649352230
  - # 3
    frequency:  114.5101424288
  - # 4
    frequency:  114.5101424304
  - # 5
    frequency:  135.4360800572
  - # 6
    frequency:  170.0395533176
  - # 7
    frequency:  202.6820320887
  - # 8
    frequency:  202.6820320890
  - # 9
    frequency:  250.9953803467

- q-position: [    0.2533333,    0.2533333,    0.0000000 ]
  distance:    0.1427422
  band:
  - # 1
    frequency:  111.0061815705
  - # 2
    frequency:  111.0061815719
  - # 3
    frequency:  114.5101424288
  - # 4
    frequency:  114.5101424304
  - # 5
    frequency:  137.4686000910
  - # 6
    frequency:  170.0395533176
  - # 7
    frequency:  201.7878163834
  - # 8
    frequency:  201.7878163836
  - # 9
    frequency:  249.8879683491

- q-position: [    0.2600000,    0.2600000,    0.0000000 ]
  distance:    0.1464985
  band:
  - # 1
    frequency:  112.5244582710
  - # 2
    frequency:  112.5244582725
  - # 3
    frequency:  114.5101424288
  - # 4
    frequency:  114.5101424304
  - # 5
    frequency:  139.3488365145
  - # 6
    frequency:  170.0395533176
  - # 7
    frequency:  200.9451205639
  - # 8
    frequency:  200.9451205641
  - # 9
    frequency:  248.8443579804

- q-position: [    0.2666667,    0.2666667,    0.0000000 ]
  distance:    0.1502549
  band:
  - # 1
    frequency:  113.9153576240
  - # 2
    frequency:  113.9153576256
  - # 3
    frequency:  114.5101424288
  - # 4
    frequency:  114.5101424304
  - # 5
    frequency:  141.0713305009
  - # 6
    frequency:  170.0395533176
  - # 7
    frequency:  200.1599022907
  - # 8
    frequency:  200.1599022909
  - # 9
    frequency:  247.8719275096

- q-position: [    0.2733333,    0.2733333,    0.0000000 ]
  distance:    0.1540113
  band:
  - # 1
    frequency:  114.5101424288
  - # 2
    frequency:  114.5101424304
  - # 3
    frequency:  115.1749493038
  - # 4
    frequency:  115.1749493053
  - # 5
    frequency:  142.6312143565
  - # 6
    frequency:  170.0395533176
  - # 7
    frequency:  199.4377753599
  - # 8
    frequency:  199.4377753600
  - # 9
    frequency:  246.9776294076

- q-position: [    0.2800000,    0.2800000,    0.0000000 ]
  distance:    0.1577676
  band:
  - # 1
    frequency:  114.5101424288
  - # 2
    frequency:  114.5101424304
  - # 3
    frequency:  116.2999456253
  - # 4
    frequency:  116.2999456269
  - # 5
    frequency:  144.0244161999
  - # 6
    frequency:  170.0395533176
  - # 7
    frequency:  198.7838470178
  - # 8
    frequency:  198.7838470179
  - # 9
    frequency:  246.1677888655

- q-position: [    0.2866667,    0.2866667,    0.0000000 ]
  distance:    0.1615240
  band:
  - # 1
    frequency:  114.5101424288
  - # 2
    frequency:  114.5101424304
  - # 3
    frequency:  117.2878751648
  - # 4
    frequency:  117.2878751664
  - # 5
    frequency:  145.2478749887
  - # 6
    frequency:  170.0395533176
  - # 7
    frequency:  198.2025467217
  - # 8
    frequency:  198.2025467218
  - # 9
    frequency:  245.4478917162

- q-position: [    0.2933333,    0.2933333,    0.0000000 ]
  distance:    0.1652804
  band:
  - # 1
    frequency:  114.5101424288
  - # 2
    frequency:  114.5101424304
  - # 3
    frequency:  118.1372546476
  - # 4
    frequency:  118.1372546492
  - # 5
    frequency:  146.2997534059
  - # 6
    frequency:  170.0395533176
  - # 7
    frequency:  197.6974563619
  - # 8
    frequency:  197.6974563620
  - # 9
    frequency:  244.8223741613

- q-position: [    0.3000000,    0.3000000,    0.0000000 ]
  distance:    0.1690368
  band:
  - # 1
    frequency:  114.5101424288
  - # 2
    frequency:  114.5101424304
  - # 3
    frequency:  118.8477467834
  - # 4
    frequency:  118.8477467851
  - # 5
    frequency:  147.1796333455
  - # 6
    frequency:  170.0395533176
  - # 7
    frequency:  197.2711541816
  - # 8
    frequency:  197.2711541816
  - # 9
    frequency:  244.2944294595

- q-position: [    0.3066667,    0.3066667,    0.0000000 ]
  distance:    0.1727931
  band:
  - # 1
    frequency:  114.5101424288
  - # 2
    frequency:  114.5101424304
  - # 3
    frequency:  119.4202907053
  - # 4
    frequency:  119.4202907070
  - # 5
    frequency:  147.8886774705
  - # 6
    frequency:  170.0395533176
  - # 7
    frequency:  196.9250856430
  - # 8
    frequency:  196.9250856430
  - # 9
    frequency:  243.8658479834

- q-position: [    0.3133333,    0.3133333,    0.0000000 ]
  distance:    0.1765495
  band:
  - # 1
    frequency:  114.5101424288
  - # 2
    frequency:  114.5101424304
  - # 3
    frequency:  119.8571923681
  - # 4
    frequency:  119.8571923698
  - # 5
    frequency:  148.4297411832
  - # 6
    frequency:  170.0395533176
  - # 7
    frequency:  196.6594737745
  - # 8
    frequency:  196.6594737745
  - # 9
    frequency:  243.5369061742

- q-position: [    0.3200000,    0.3200000,    0.0000000 ]
  distance:    0.1803059
  band:
  - # 1
    frequency:  114.5101424288
  - # 2
    frequency:  114.5101424304
  - # 3
    frequency:  120.1621649022
  - # 4
    frequency:  120.1621649039
  - # 5
    frequency:  148.8074226146
  - # 6
    frequency:  170.0395533176
  - # 7
    frequency:  196.4732788795
  - # 8
    frequency:  196.4732788795
  - # 9
    frequency:  243.3063166287

- q-position: [    0.3266667,    0.3266667,    0.0000000 ]
  distance:    0.1840623
  band:
  - # 1
    frequency:  114.5101424288
  - # 2
    frequency:  114.5101424304
  - # 3
    frequency:  120.3403133004
  - # 4
    frequency:  120.3403133021
  - # 5
    frequency:  149.0280436690
  - # 6
    frequency:  170.0395533176
  - # 7
    frequency:  196.3642130898
  - # 8
    frequency:  196.3642130898
  - # 9
    frequency:  243.1712461144

- q-position: [    0.3333333,    0.3333333,    0.0000000 ]
  distance:    0.1878186
  band:
  - # 1
    frequency:  114.5101424288
  - # 2
    frequency:  114.5101424304
  - # 3
    frequency:  120.3980632757
  - # 4
    frequency:  120.3980632775
  - # 5
    frequency:  149.0995619226
  - # 6
    frequency:  170.0395533176
  - # 7
    frequency:  196.3288097735
  - # 8
    frequency:  196.3288097735
  - # 9
    frequency:  243.1274015225

- q-position: [    0.3333333,    0.3333333,    0.0000000 ]
  distance:    0.1878186
  band:
  - # 1
    frequency:  114.5101424288
  - # 2
    frequency:  114.5101424304
  - # 3
    frequency:  120.3980632757
  - # 4
    frequency:  120.3980632775
  - # 5
    frequency:  149.0995619226
  - # 6
    frequency:  170.0395533176
  - # 7
    frequency:  196.3288097735
  - # 8
    frequency:  196.3288097735
  - # 9
    frequency:  243.1274015225

- q-position: [    0.3366667,    0.3266667,    0.0000000 ]
  distance:    0.1896968
  band:
  - # 1
    frequency:  114.5101424288
  - # 2
    frequency:  114.5101424304
  - # 3
    frequency:  120.3841289943
  - # 4
    frequency:  120.3841289960
  - # 5
    frequency:  149.0823055429
  - # 6
    frequency:  170.0395533176
  - # 7
    frequency:  196.3373542501
  - # 8
    frequency:  196.3373542501
  - # 9
    frequency:  243.1379832742

- q-position: [    0.3400000,    0.3200000,    0.0000000 ]
  distance:    0.1915750
  band:
  - # 1
    frequency:  114.5101424288
  - # 2
    frequency:  114.5101424304
  - # 3
    frequency:  120.3430397163
  - # 4
    frequency:  120.3430397180
  - # 5
    frequency:  149.0314200946
  - # 6
    frequency:  170.0395533176
  - # 7
    frequency:  196.3625422006
  - # 8
    frequency:  196.3625422006
  - # 9
    frequency:  243.1691768321

- q-position: [    0.3433333,    0.3133333,    0.0000000 ]
  distance:    0.1934532
  band:
  - # 1
    frequency:  114.5101424288
  - # 2
    frequency:  114.5101424304
  - # 3
    frequency:  120.2759093325
  - # 4
    frequency:  120.2759093342
  - # 5
    frequency:  148.9482850382
  - # 6
    frequency:  170.0395533176
  - # 7
    frequency:  196.4036680459
  - # 8
    frequency:  196.4036680459
  - # 9
    frequency:  243.2201083809

- q-position: [    0.3466667,    0.3066667,    0.0000000 ]
  distance:    0.1953314
  band:
  - # 1
    frequency:  114.5101424288
  - # 2
    frequency:  114.5101424304
  - # 3
    frequency:  120.1839048566
  - # 4
    frequency:  120.1839048584
  - # 5
    frequency:  148.8343456251
  - # 6
    frequency:  170.0395533176
  - # 7
    frequency:  196.4599811693
  - # 8
    frequency:  196.4599811693
  - # 9
    frequency:  243.2898483270

- q-position: [    0.3500000,    0.3000000,    0.0000000 ]
  distance:    0.1972096
  band:
  - # 1
    frequency:  114.5101424288
  - # 2
    frequency:  114.5101424304
  - # 3
    frequency:  120.0682401052
  - # 4
    frequency:  120.0682401069
  - # 5
    frequency:  148.6911050699
  - # 6
    frequency:  170.0395533176
  - # 7
    frequency:  196.5306920196
  - # 8
    frequency:  196.5306920196
  - # 9
    frequency:  243.3774188575

- q-position: [    0.3533333,    0.2933333,    0.0000000 ]
  distance:    0.1990877
  band:
  - # 1
    frequency:  114.5101424288
  - # 2
    frequency:  114.5101424304
  - # 3
    frequency:  119.9301692845
  - # 4
    frequency:  119.9301692862
  - # 5
    frequency:  148.5201166081
  - # 6
    frequency:  170.0395533176
  - # 7
    frequency:  196.6149782774
  - # 8
    frequency:  196.6149782774
  - # 9
    frequency:  243.4818015773

- q-position: [    0.3566667,    0.2866667,    0.0000000 ]
  distance:    0.2009659
  band:
  - # 1
    frequency:  114.5101424288
  - # 2
    frequency:  114.5101424304
  - # 3
    frequency:  119.7709805874
  - # 4
    frequency:  119.7709805891
  - # 5
    frequency:  148.3229755654
  - # 6
    frequency:  170.0395533176
  - # 7
    frequency:  196.7119909837
  - # 8
    frequency:  196.7119909837
  - # 9
    frequency:  243.6019450991

- q-position: [    0.3600000,    0.2800000,    0.0000000 ]
  distance:    0.2028441
  band:
  - # 1
    frequency:  114.5101424288
  - # 2
    frequency:  114.5101424304
  - # 3
    frequency:  119.5919898883
  - # 4
    frequency:  119.5919898900
  - # 5
    frequency:  148.1013115496
  - # 6
    frequency:  170.0395533176
  - # 7
    frequency:  196.8208605362
  - # 8
    frequency:  196.8208605362
  - # 9
    frequency:  243.7367724696

- q-position: [    0.3633333,    0.2733333,    0.0000000 ]
  distance:    0.2047223
  band:
  - # 1
    frequency:  114.5101424288
  - # 2
    frequency:  114.5101424304
  - # 3
    frequency:  119.3945346186
  - # 4
    frequency:  119.3945346203
  - # 5
    frequency:  147.8567808648
  - # 6
    frequency:  170.0395533176
  - # 7
    frequency:  196.9407024737
  - # 8
    frequency:  196.9407024737
  - # 9
    frequency:  243.8851883345

- q-position: [    0.3666667,    0.2666667,    0.0000000 ]
  distance:    0.2066005
  band:
  - # 1
    frequency:  114.5101424288
  - # 2
    frequency:  114.5101424304
  - # 3
    frequency:  119.1799678866
  - # 4
    frequency:  119.1799678882
  - # 5
    frequency:  147.5910592288
  - # 6
    frequency:  170.0395533176
  - # 7
    frequency:  197.0706229812
  - # 8
    frequency:  197.0706229812
  - # 9
    frequency:  244.0460857550

- q-position: [    0.3700000,    0.2600000,    0.0000000 ]
  distance:    0.2084787
  band:
  - # 1
    frequency:  114.5101424288
  - # 2
    frequency:  114.5101424304
  - # 3
    frequency:  118.9496528949
  - # 4
    frequency:  118.9496528965
  - # 5
    frequency:  147.3058348601
  - # 6
    frequency:  170.0395533176
  - # 7
    frequency:  197.2097240600
  - # 8
    frequency:  197.2097240601
  - # 9
    frequency:  244.2183526126

- q-position: [    0.3733333,    0.2533333,    0.0000000 ]
  distance:    0.2103569
  band:
  - # 1
    frequency:  114.5101424288
  - # 2
    frequency:  114.5101424304
  - # 3
    frequency:  118.7049576958
  - # 4
    frequency:  118.7049576974
  - # 5
    frequency:  147.0028019818
  - # 6
    frequency:  170.0395533176
  - # 7
    frequency:  197.3571083242
  - # 8
    frequency:  197.3571083242
  - # 9
    frequency:  244.4008775478

- q-position: [    0.3766667,    0.2466667,    0.0000000 ]
  distance:    0.2122351
  band:
  - # 1
    frequency:  114.5101424288
  - # 2
    frequency:  114.5101424304
  - # 3
    frequency:  118.4472503099
  - # 4
    frequency:  118.4472503115
  - # 5
    frequency:  146.6836547762
  - # 6
    frequency:  170.0395533176
  - # 7
    frequency:  197.5118833935
  - # 8
    frequency:  197.5118833936
  - # 9
    frequency:  244.5925554021

- q-position: [    0.3800000,    0.2400000,    0.0000000 ]
  distance:    0.2141132
  band:
  - # 1
    frequency:  114.5101424288
  - # 2
    frequency:  114.5101424304
  - # 3
    frequency:  118.1778942232
  - # 4