3    
3    

1    
  0.0017474547022656   0.0000000000000000   0.0098461364028501
  -0.0237777700    0.0000140000   -0.2054616600
   0.0116396200   -0.0000065800    0.1010030900
   0.0121381500   -0.0000074200    0.1044585700

2    
  0.0017474547022656   0.0000000000000000   0.0098461364028501
   0.0121540000    0.0000109600    0.1041815000
  -0.0115854600   -0.0000129700   -0.1200382200
  -0.0005685300    0.0000020200    0.0158567200

2    
 -0.0017474547022656   0.0000000000000000  -0.0098461364028501
  -0.0116271400    0.0000102000   -0.1013158100
   0.0110611200   -0.0000122500    0.1163463900
   0.0005660200    0.0000020400   -0.0150305800
