phonopy:
  version: 2.16.3
  frequency_unit_conversion_factor: 15.633302
  symmetry_tolerance: 1.00000e-05
  configuration:
    cell_filename: "POSCAR"
    create_displacements: ".true."
    dim: "1 1 1"

physical_unit:
  atomic_mass: "AMU"
  length: "angstrom"
  force_constants: "eV/angstrom^2"

space_group:
  type: "P-6m2"
  number: 187
  Hall_symbol: "P -6 2"

supercell_matrix:
- [   1,   0,   0 ]
- [   0,   1,   0 ]
- [   0,   0,   1 ]

primitive_cell:
  lattice:
  - [     3.549523652261799,     0.000000000000000,     0.000000000000000 ] # a
  - [    -1.774761826081029,     3.073977654199909,     0.000000000000000 ] # b
  - [     0.000000000000000,     0.000000000000000,    20.000000000000000 ] # c
  points:
  - symbol: Mo # 1
    coordinates: [  0.333333343000000,  0.666666687000003,  0.499999993000003 ]
    mass: 95.960000
  - symbol: Te # 2
    coordinates: [  0.666666687000003,  0.333333343000000,  0.409723437189734 ]
    mass: 127.600000
  - symbol: Te # 3
    coordinates: [  0.666666687000003,  0.333333343000000,  0.590276562810266 ]
    mass: 127.600000
  reciprocal_lattice: # without 2pi
  - [     0.281727943794032,     0.162655704182758,     0.000000000000000 ] # a*
  - [     0.000000000000000,     0.325311408374658,     0.000000000000000 ] # b*
  - [     0.000000000000000,     0.000000000000000,     0.050000000000000 ] # c*

unit_cell:
  lattice:
  - [     3.549523652261799,     0.000000000000000,     0.000000000000000 ] # a
  - [    -1.774761826081029,     3.073977654199909,     0.000000000000000 ] # b
  - [     0.000000000000000,     0.000000000000000,    20.000000000000000 ] # c
  points:
  - symbol: Mo # 1
    coordinates: [  0.333333343000000,  0.666666687000003,  0.499999993000003 ]
    mass: 95.960000
    reduced_to: 1
  - symbol: Te # 2
    coordinates: [  0.666666687000003,  0.333333343000000,  0.409723437189734 ]
    mass: 127.600000
    reduced_to: 2
  - symbol: Te # 3
    coordinates: [  0.666666687000003,  0.333333343000000,  0.590276562810266 ]
    mass: 127.600000
    reduced_to: 3

supercell:
  lattice:
  - [     3.549523652261799,     0.000000000000000,     0.000000000000000 ] # a
  - [    -1.774761826081029,     3.073977654199909,     0.000000000000000 ] # b
  - [     0.000000000000000,     0.000000000000000,    20.000000000000000 ] # c
  points:
  - symbol: Mo # 1
    coordinates: [  0.333333343000000,  0.666666687000003,  0.499999993000003 ]
    mass: 95.960000
    reduced_to: 1
  - symbol: Te # 2
    coordinates: [  0.666666687000003,  0.333333343000000,  0.409723437189734 ]
    mass: 127.600000
    reduced_to: 2
  - symbol: Te # 3
    coordinates: [  0.666666687000003,  0.333333343000000,  0.590276562810266 ]
    mass: 127.600000
    reduced_to: 3

displacements:
- atom:    1
  displacement:
    [   0.0017474547022656,  0.0000000000000000,  0.0098461364028501 ]
- atom:    2
  displacement:
    [   0.0017474547022656,  0.0000000000000000,  0.0098461364028501 ]
- atom:    2
  displacement:
    [  -0.0017474547022656,  0.0000000000000000, -0.0098461364028501 ]
