..//POSCAR-shift-0.0.lmp (written by ASE) 

8280 	 atoms 
2  atom types
0.0       252.4393061451272  xlo xhi
0.0      94.898588865352053  ylo yhi
0.0                      20  zlo zhi


Atoms 

     1   2 -0.20464567855753446      193.58599148407674      20.279602909716356      11.617907051903194
     2   2 -0.2046455566664332      210.04942442326004      20.279602956190306       11.61790705187412
     3   2 -0.2046456224773311      210.04942443207426      80.382042611198358      11.617907042896382
     4   2 -0.20464572857784233       193.5859914976343      77.218756178309548       11.61790703664491
     5   2 -0.20464578242064757      193.58599151082538      80.382042563454974      11.617907032495417
     6   2 -0.20464554807496763      210.04942443134516      77.218756229406779      11.617907030878518
     7   2 -0.20464598941901757      210.04942443107447      4.4631714555770898      11.617907019098233
     8   2 -0.20464571379757618      160.65912544996016       4.463171353743796      11.617907016724953
     9   2 -0.20464604131243624      160.65912542671842      77.218756113946071      11.617907016156964
    10   2 -0.20464606965245374      160.65912544056803      80.382042516984029      11.617907012564123
    11   2 -0.20464578496282182      193.58599149444819       4.463171424177216      11.617907011219126
    12   2 -0.20464548138356975      210.04942442903049      23.442889317528333      11.617907008671519
    13   2 -0.20464558679462602      253.95191232589107      80.382042373535469      11.617906999971153
    14   2 -0.20464556441144105      193.58599148476588      23.442889272372057      11.617906996514648
    15   2 -0.20464586396691192      210.04942441055243       64.56561112109901      11.617906988906084
    16   2 -0.2046459478593021      253.95191232439191      4.4631712495341613      11.617906986696033
    17   2 -0.20464587043499333      210.04942442204691      42.422607033434033       11.61790698572567
    18   2 -0.20464607883183322      23.463850286625405       4.463171385352009      11.617906983659378
    19   2 -0.20464605714871595      210.04942440128016      7.6264578199014723      11.617906982431938
    20   2 -0.20464607044921368      23.463850252636529      77.218756106140205      11.617906981701053
    21   2 -0.20464574421792292      160.65912543078306      20.279602842202028      11.617906980781196
    22   2 -0.20464569507134475      23.463850258089746      20.279602839266413      11.617906977973583
    23   2 -0.20464623851757285      23.463850280032759      96.198473869548437      11.617906976797151
    24   2 -0.20464582261471825      138.70788130912058      80.382042369067747      11.617906976145537
    25   2 -0.20464581792129943      193.58599149063957      42.422606977590142      11.617906975805097
    26   2 -0.2046457709963318      210.04942442109467      58.239038495040646      11.617906975704143
    27   2 -0.2046456002912752      253.95191231015866      77.218755995453307      11.617906973722439
    28   2 -0.20464570443953523      160.65912541961882      7.6264577262606146      11.617906972501705
    29   2 -0.20464563313507206      226.51285747306258      80.382042448655099      11.617906972140494
    30   2 -0.20464583542012726      210.04942441020441      17.116316594096137      11.617906970627507
    31   2 -0.20464582231775172      210.04942443338231      61.402324781433386      11.617906970186302
    32   2 -0.20464590065268023      193.58599149380939      96.198473960623545      11.617906969284569
    33   2 -0.2046458481910307      193.58599148635642      39.259320643732394      11.617906968553591
    34   2 -0.20464589817839868      193.58599146278959      58.239038412321683      11.617906967473651
    35   2 -0.2046460831150487      23.463850263831215      80.382042485051883      11.617906967193607
    36   2 -0.20464589992154947      226.51285749104233       4.463171331116234      11.617906964813765
    37   2 -0.20464566824321578      138.70788129403022      77.218755965270333      11.617906964568794
    38   2 -0.2046457493467254      160.65912543091571       23.44288917450552      11.617906964403938
    39   2 -0.20464589491719842      193.58599145447579      64.565611043750465      11.617906963546375
    40   2 -0.20464553200997984      138.70788132488155      20.279602737613939      11.617906963034164
    41   2 -0.20464567801478928      193.58599145877409      7.6264577788703933      11.617906961879058
    42   2 -0.20464579796630733      226.51285748673047      61.402324664036378      11.617906961276432
    43   2 -0.20464567474673995       160.6591254557805      96.198473882832374      11.617906960609965
    44   2 -0.2046458385509833      210.04942440269011      55.075752151287233      11.617906959611178
    45   2 -0.20464566030417783      242.97629043379786       39.25932061247029       11.61790695929071
    46   2 -0.20464573482148274       242.9762904461638      42.422606980738642      11.617906957838157
    47   2 -0.2046459155724741       210.0494244362506       96.19847399943427      11.617906956013906
    48   2 -0.20464583079815793      193.58599146003374       17.11631649471499      11.617906955877851
    49   2 -0.20464556264070466      253.95191229821975       23.44288902591008      11.617906955473948
    50   2 -0.2046457690461619      210.04942442600304      83.545328904131708      11.617906955364781
    51   2 -0.2046458309405757      210.04942442214832      39.259320721171157       11.61790695487481
    52   2 -0.2046457333834521        226.512857483581      58.239038328472837      11.617906954797423
    53   2 -0.20464595202446442      193.58599147128172       61.40232473309068      11.617906954304337
    54   2 -0.20464613163062542      226.51285747024554      20.279602799874219      11.617906953388816
    55   2 -0.20464564686602993      160.65912541314964      61.402324669490362      11.617906953018153
    56   2 -0.20464550569000306      160.65912542033976      58.239038356204034      11.617906952217837
    57   2 -0.2046453891528056      237.48847936427163      77.218755945694426      11.617906951798959
    58   2 -0.20464585879551622      226.51285747246715      77.218756083990883      11.617906951590854
    59   2 -0.20464563687748086      177.12255838469008      4.4631713436642579       11.61790695131868
    60   2 -0.20464588591543048      7.0004173774530427      4.4631713522819041      11.617906948924077
    61   2 -0.2046457042727604      116.75663733374205      80.382042317863025      11.617906948197891
    62   2 -0.20464580178380304      242.97629046117589      20.279602814798356      11.617906945750129
    63   2 -0.20464535856273475       226.5128574504829      36.096034268144585      11.617906945581922
    64   2 -0.20464580011157774      127.73225945084189      4.4631712482880967      11.617906945537639
    65   2 -0.2046458715081163      242.97629044382882      77.218756115005988      11.617906945526325
    66   2 -0.20464595504466257      253.95191228288283      58.239038236692039      11.617906944248864
    67   2 -0.20464551822177268      226.51285748279619      39.259320613897835      11.617906944110063
    68   2 -0.20464582916586527      7.0004173832083731      80.382042522912371      11.617906943722174
    69   2 -0.20464590171969887      210.04942440945223      45.585893388216036      11.617906941752587
    70   2 -0.20464577408477103      177.12255839045079        80.3820424259671      11.617906941596013
    71   2 -0.20464580652425995      193.58599147901202      36.096034349873015      11.617906941521252
    72   2 -0.20464589165262653      144.19569235085217       77.21875607580067      11.617906940242998
    73   2 -0.20464573814154613      138.70788130042374      17.116316341365891      11.617906939844572
    74   2 -0.2046457233657497      160.65912543900691      42.422606920364458      11.617906939765515
    75   2 -0.20464566223723882      226.51285749248657      42.422606920852203      11.617906938765813
    76   2 -0.20464556449558707      210.04942441562656      26.606175557114803      11.617906938727774
    77   2 -0.2046457363860235      210.04942440167147      36.096034419596634      11.617906938492757
    78   2 -0.2046458402603724       253.9519122879841      7.6264576393711447      11.617906938032263
    79   2 -0.20464581349479727       7.000417373161663      77.218756120894994      11.617906937515601
    80   2 -0.20464564993368195      7.0004173711067699      20.279602832236971      11.617906937210202
    81   2 -0.2046457367903728      193.58599146615074      55.075752103736356      11.617906936911192
    82   2 -0.20464571827297112      210.04942438807348      67.728897448892923      11.617906936375112
    83   2 -0.20464567792836116      7.0004173625177266      42.422606928927834      11.617906935929462
    84   2 -0.20464572653005983       193.5859914833448      45.585893293443597      11.617906934961905
    85   2 -0.20464586199543922      160.65912538935123      64.565611001049348      11.617906934836768
    86   2 -0.20464587171490647      78.341960273763988        80.3820423533287      11.617906934201638
    87   2 -0.20464588752344032      226.51285748410962      96.198473856051834      11.617906934160414
    88   2 -0.20464571758478928      78.341960267096823      4.4631712509875863      11.617906933755055
    89   2 -0.20464565209930746      23.463850253441546      17.116316484228712      11.617906933412771
    90   2 -0.20464555579236895      78.341960271931754       20.27960270530853      11.617906932440059
    91   2 -0.2046455772096185      23.463850229000037      64.565610965838204      11.617906931962166
    92   2 -0.20464547786011064      23.463850245399627       58.23903835409007      11.617906931087488
    93   2 -0.20464576291270914      23.463850235470485      55.075752029683258      11.617906930049159
    94   2 -0.20464541350649662      23.463850241059209       61.40232463967773      11.617906929810252
    95   2 -0.20464602472166304      237.48847937797532      4.4631712078554466      11.617906929731776
    96   2 -0.20464527826043716      237.48847938989607      80.382042385203206      11.617906929377876
    97   2 -0.20464598320342448      193.58599147421464      93.035187663500963      11.617906929144619
    98   2 -0.20464556917311216      7.0004173619018664      23.442889213004271      11.617906929144237
    99   2 -0.2046458773455917      116.75663734505839      20.279602717456932      11.617906929095495
   100   2 -0.20464568568309277      253.95191231149175       20.27960271588034      11.617906928347647
   101   2 -0.20464583059073635      23.463850246693056      23.442889189711821      11.617906928281988
   102   2 -0.2046458111886681      7.0004173397689167      7.6264577099311621      11.617906927905205
   103   2 -0.2046456609612491       242.9762904444303      58.239038356181922      11.617906927510081
   104   2 -0.20464617791067147      226.51285746773721      23.442889143650451      11.617906927298401
   105   2 -0.20464583589922514      160.65912541140193      17.116316490738669      11.617906927251578
   106   2 -0.20464587295567863      253.95191232587604      96.198473804521583      11.617906927054886
   107   2 -0.2046459297265263      122.24444827093241      80.382042337168713      11.617906926391282
   108   2 -0.20464587633228304      138.70788131590109      42.422606811164883      11.617906924610262
   109   2 -0.2046456584505309      17.976039236315572      4.4631711891495076      11.617906924529722
   110   2 -0.20464549995728842      242.97629044311898      61.402324680105927      11.617906923969338
   111   2 -0.2046456251067222      56.390716244845954      80.382042308729879      11.617906923850745
   112   2 -0.2046458613845361       160.6591254218296      26.606175437616795      11.617906923475159
   113   2 -0.2046456906486825      56.390716230574697      77.218755926881684      11.617906923280382
   114   2 -0.2046456743577928      144.19569236275987      4.4631713262315742      11.617906923260277
   115   2 -0.20464592673874737      242.97629045812914      4.4631713469762362      11.617906921883939
   116   2 -0.20464570582686736      193.58599146978347      32.932748035589292      11.617906921795566
   117   2 -0.2046456368550157      253.95191229738688      26.606175305715411      11.617906921415607
   118   2 -0.20464599284871499      144.19569234894962      80.382042466439444       11.61790692098471
   119   2 -0.20464587334683554      116.75663732490013      39.259320431534618      11.617906920972146
   120   2 -0.20464555706172632      7.0004173550962436      45.585893256517018      11.617906920848736
   121   2 -0.20464610894188306      160.65912543506812      83.545328801322526        11.6179069207474
   122   2 -0.20464543968398824      100.29320428718086      80.382042336382199      11.617906920619332
   123   2 -0.2046459126419931      138.70788130177417      4.4631712426616454      11.617906920308096
   124   2 -0.20464605542638478       210.0494243860789      89.871901425471648      11.617906919951192
   125   2 -0.20464585936165985      193.58599150091678      83.545328863304803      11.617906919723206
   126   2 -0.20464601575973573      253.95191225552787      55.075751849199619      11.617906917472501
   127   2 -0.20464574334344213      237.48847939379056      20.279602685786884      11.617906917461047
   128   2 -0.2046459165179144      226.51285747009308      64.565611012221581      11.617906917240902
   129   2 -0.2046461493164276      39.927283291540235      4.4631712315660916      11.617906916783156
   130   2 -0.20464566590267047      193.58599145950117      74.055469840591755      11.617906916408383
   131   2 -0.20464621815210252      23.463850248752131      93.035187573573936      11.617906916357356
   132   2 -0.20464595402874597      210.04942440947391      93.035187733058834      11.617906916093768
   133   2 -0.2046456494351977      45.415094211070411      42.422606782326099        11.6179069157923
   134   2 -0.20464562046034596      127.73225941840795      80.382042399146883      11.617906915592094
   135   2 -0.20464592375289833      160.65912543773234      39.259320591588931      11.617906915570662
   136   2 -0.20464552477754255       116.7566373580611      4.4631712443370963       11.61790691556325
   137   2 -0.20464550185036878      160.65912539765955      55.075751994849142      11.617906915153597
   138   2 -0.2046454556751583      177.12255833846754      58.239038317459872      11.617906914471472
   139   2 -0.20464569792626783      17.976039211085919       77.21875587263186      11.617906914071344
   140   2 -0.2046458325562207      138.70788131197017      39.259320443980712      11.617906913945898
   141   2 -0.20464534904395665      177.12255834923374      7.6264576910066255       11.61790691389302
   142   2 -0.20464564588574896      210.04942438605488      32.932748114924891      11.617906913732085
   143   2 -0.2046460557774113      138.70788130696221      96.198473779602253      11.617906913674783
   144   2 -0.20464552102944014      177.12255837330704      20.279602801190045      11.617906913543854
   145   2 -0.2046457798118763      94.805393287540284      77.218755959399459      11.617906911574142
   146   2 -0.20464577667596096      193.58599143906554      67.728897381796529      11.617906911247321
   147   2 -0.20464563550314482      78.341960241426435      7.6264576232097676      11.617906910899006
   148   2 -0.20464610397900568      122.24444826081404      4.4631712280177345      11.617906910585713
   149   2 -0.20464573602569397      45.415094255854456      20.279602743981432       11.61790691014024
   150   2 -0.20464591347478872      23.463850218023307      36.096034285487725      11.617906909627285
   151   2 -0.20464595278310643      23.463850225874687      39.259320611631189      11.617906909469712
   152   2 -0.20464546463373107      210.04942442727238      74.055469914051457      11.617906909007974
   153   2 -0.20464553905520708      160.65912542962752      45.585893227733422      11.617906908860155
   154   2 -0.20464576540265023      45.415094248763282      4.4631712430050765      11.617906908821658
   155   2 -0.20464571624728672      7.0004173543468298      55.075752043648876      11.617906908668411
   156   2 -0.2046457514466946      242.97629043269038       45.58589328774724      11.617906908422613
   157   2 -0.2046457902078167      116.75663733576852      42.422606825721232       11.61790690835344
   158   2 -0.20464550269271176      177.12255836737347      23.442889147430019      11.617906908210148
   159   2 -0.2046454702246256      242.97629042308324      64.565610995215749      11.617906907757806
   160   2 -0.20464570368353616      177.12255838278745      77.218756111487764      11.617906907384716
   161   2 -0.20464592637799572      94.805393308989437      80.382042348705994      11.617906907370566
   162   2 -0.20464583229810207      34.439472201616894      80.382042280565386      11.617906907220441
   163   2 -0.2046460555478088      94.805393322244541      4.4631712274073045      11.617906907048608
   164   2 -0.2046457528982315      78.341960268674825      77.218755994500569      11.617906906785391
   165   2 -0.20464598829235653      210.04942440389271      86.708615155537004      11.617906906309113
   166   2 -0.2046458614259339      188.09818020161086      80.382042234417796      11.617906906244686
   167   2 -0.20464567337670952      17.976039231604908      96.198473669414014      11.617906906006429
   168   2 -0.20464572263563      226.51285748348042      45.585893236877432      11.617906905944379
   169   2 -0.20464566875763038      78.341960263368435      23.442889073469736      11.617906905786365
   170   2 -0.2046457702958755       17.97603923064182      80.382042276374065      11.617906904803199
   171   2 -0.20464593010263057      210.04942438074283      51.912465859686073      11.617906904556291
   172   2 -0.20464603926064287      100.29320426269436      20.279602719588183      11.617906903666729
   173   2 -0.20464577926605915      242.97629045476728      80.382042492174264       11.61790690339854
   174   2 -0.20464574925591233      127.73225941401462      77.218756007460328      11.617906902975777
   175   2 -0.20464575196006846      226.51285746197198      55.075752008066836      11.617906902702366
   176   2 -0.20464591106900484      23.463850232593096      42.422606892147058      11.617906902449652
   177   2 -0.2046456455119962        138.707881292271      64.565610859136953      11.617906901475784
   178   2 -0.20464572090276922      23.463850215694357      67.728897271650766      11.617906901353825
   179   2 -0.20464561592931585      210.04942439830228      29.769461820781846      11.617906901239634
   180   2 -0.2046455484026488      138.70788131874994       58.23903823594965      11.617906901201003
   181   2 -0.2046456227179994      7.0004173654960535      58.239038397995863      11.617906900866021
   182   2 -0.20464593054579905       116.7566373297697      23.442889036837322      11.617906900197269
   183   2 -0.2046460104767339      160.65912541384117      74.055469817036126       11.61790690003032
   184   2 -0.20464602828191292      193.58599144787669      89.871901346937392      11.617906899961246
   185   2 -0.204645530278258      138.70788131379874      61.402324526018432      11.617906899886826
   186   2 -0.20464580044531971      100.29320430559656      4.4631712588258496      11.617906899883707
   187   2 -0.2046457235932261      242.97629041874018      55.075752051256728       11.61790689959661
   188   2 -0.20464592151339486      160.65912541550071      29.769461708826082      11.617906899571725
   189   2 -0.20464572804317127      160.65912542862026      93.035187588795566      11.617906899551622
   190   2 -0.20464562806958747      242.97629039671597      36.096034275061712       11.61790689878092
   191   2 -0.20464555994747197      193.58599146518961       26.60617553375954      11.617906898604357
   192   2 -0.20464561259987069       45.41509423820704      80.382042353915494      11.617906898061809
   193   2 -0.2046458633035297      171.63474729822167      23.442888923860504       11.61790689803134
   194   2 -0.2046458417846187      23.463850253937288      7.6264577221201622      11.617906897425915
   195   2 -0.20464562707416087      253.95191231830873      83.545328714738602      11.617906897355184
   196   2 -0.2046455203271168      177.12255834220153      61.402324667150282      11.617906896980694
   197   2 -0.20464553258040954      138.70788132178373      23.442889055645736      11.617906896870766
   198   2 -0.2046457191868873      138.70788128808687      55.075751882613766      11.617906896740148
   199   2 -0.2046456883556565        7.00041735297303      64.565610994338655      11.617906896709467
   200   2 -0.20464562961860033      122.24444827842409      20.279602696265343       11.61790689649186
   201   2 -0.20464583578777074      56.390716250297309       4.463171182610191      11.617906896456505
   202   2 -0.2046456365122526      100.29320426992432      77.218755981918179      11.617906896290343
   203   2 -0.20464585519630935      116.75663732129659      77.218755962141287      11.617906895474867
   204   2 -0.20464537363923657      226.51285742949119       32.93274795670321      11.617906894855558
   205   2 -0.20464585785287104      61.878527324788358      4.4631712478582477      11.617906894660905
   206   2 -0.2046454366795556      226.51285746595286      83.545328745577422      11.617906893804607
   207   2 -0.20464592529525827      237.48847938221081      96.198473732709786      11.617906893258708
   208   2 -0.20464592014981142      23.463850230123182      45.585893186998597      11.617906893036354
   209   2 -0.2046459910278271      23.463850228220252      51.912465748534146      11.617906892084971
   210   2 -0.20464566257727135      144.19569233094282      7.6264576811160349      11.617906891051115
   211   2 -0.2046455445587068      7.0004173686842215       61.40232466166028      11.617906890750351
   212   2 -0.20464581048685326      7.0004174005845767      96.198473887803985      11.617906890541835
   213   2 -0.2046458045354137      171.63474731286058      20.279602593137117      11.617906890479341
   214   2 -0.20464588206482956      226.51285746316626      7.6264576884320308      11.617906890372776
   215   2 -0.20464552636786154       188.0981802033759      20.279602561403159      11.617906890299752
   216   2 -0.204645788958423      122.24444826135384       77.21875594302638      11.617906890187628
   217   2 -0.20464591116777175      188.09818017613978      77.218755810947101      11.617906889944313
   218   2 -0.20464590915186653       23.46385024120783      74.055469799505019      11.617906889518867
   219   2 -0.2046459267042166       242.9762904403822      23.442889186322994      11.617906889413575
   220   2 -0.20464598664809078      17.976039217248438      20.279602620962937      11.617906889081297
   221   2 -0.20464608393503197      23.463850228161601      89.871901276277526      11.617906888940741
   222   2 -0.2046458263502156      23.463850208052076      32.932747968614741      11.617906888709456
   223   2 -0.2046459400647963      242.97629046603208      96.198473883531079      11.617906888663009
   224   2 -0.20464551331381475       100.2932042803255      39.259320454569462       11.61790688854547
   225   2 -0.20464601731362297      78.341960229103364      55.075751920350228      11.617906887615453
   226   2 -0.20464612636182714      138.70788127107798      93.035187457605417      11.617906887257774
   227   2 -0.20464588577126486      127.73225944363581      96.198473758581386       11.61790688721049
   228   2 -0.20464587121380484        45.4150942413102      64.565610858110986      11.617906887045249
   229   2 -0.20464605031059066      226.51285745893168      17.116316433575744       11.61790688679754
   230   2 -0.2046456759370275      50.902905293823878      80.382042288969274      11.617906886505081
   231   2 -0.20464549219914024      61.878527333385541      20.279602705433689      11.617906886435279
   232   2 -0.20464567300746433      7.0004173632223541      39.259320613998398      11.617906885830276
   233   2 -0.2046458722904744       127.7322594274447      20.279602719211258      11.617906885811507
   234   2 -0.2046457646800764      78.341960243215908      58.239038295718387      11.617906885497751
   235   2 -0.20464550340988294       34.43947220824132      4.4631711677702324      11.617906885232157
   236   2 -0.20464539818813637      116.75663733623999      55.075751912415875      11.617906884577501
   237   2 -0.20464563116417694      237.48847939812379      23.442889024448839      11.617906884560348
   238   2 -0.2046456529387501      61.878527320115168      23.442889035752984      11.617906884330347
   239   2 -0.2046463308352458      67.366338259894135      42.422606787488498      11.617906883666835
   240   2 -0.20464556713183307      100.29320428747209       42.42260683694888       11.61790688351557
   241   2 -0.20464576248388694      237.48847934571202      42.422606685626526      11.617906883371132
   242   2 -0.2046456429593173      45.415094236741766      96.198473770212971       11.61790688332605
   243   2 -0.20464591033561932      56.390716214042264      7.6264575237021575       11.61790688302502
   244   2 -0.2046456600566703      116.75663733827689       83.54532866046155      11.617906882949576
   245   2 -0.20464559837536173      193.58599146159361      51.912465792103404      11.617906882912298
   246   2 -0.2046461176020108      237.48847930680657      55.075751821303015      11.617906882693726
   247   2 -0.20464600295574542      23.463850226431362       48.74917945886714      11.617906882668251
   248   2 -0.20464564911405125      94.805393319695526      20.279602706351174      11.617906882211752
   249   2 -0.2046457396691499      45.415094242088088      77.218755991546274      11.617906882037554
   250   2 -0.20464574069937114      144.19569236232343      96.198473861407535      11.617906881710566
   251   2 -0.20464590266024962      177.12255838224192      96.198473816033143      11.617906881276056
   252   2 -0.2046457617668802      253.95191228879798      61.402324569727455      11.617906881007039
   253   2 -0.20464558537475885      171.63474734911134      42.422606697929787      11.617906880573214
   254   2 -0.20464570839032503      100.29320426660844      55.075751899932044      11.617906880529366
   255   2 -0.2046460217680196       171.6347473156863      77.218755856137264      11.617906880456053
   256   2 -0.20464598331470713      23.463850239895532      83.545328782658075      11.617906880367508
   257   2 -0.20464561280072724      193.58599146318019      29.769461736542155      11.617906879627638
   258   2 -0.2046459426269304      210.04942438812995      48.749179632345992      11.617906879527897
   259   2 -0.20464569541129074      116.75663732535493      64.565610823452531      11.617906879207546
   260   2 -0.20464593979154821      89.317582215975264      80.382042251994974      11.617906879175354
   261   2 -0.2046458129771191      116.75663733844667      17.116316351115398      11.617906878368041
   262   2 -0.20464611393217944      94.805393320487156      42.422606771287768      11.617906878350599
   263   2 -0.20464601950986108      221.02504625751547      4.4631711466415975      11.617906878203316
   264   2 -0.2046457893460512      138.70788126410616      7.6264575625655109      11.617906878104391
   265   2 -0.20464598641496468      160.65912537183146      67.728897299476074      11.617906878038559
   266   2 -0.20464567057516336      253.95191226117703      64.565610843940405      11.617906877478919
   267   2 -0.20464575741597085      144.19569234906371      20.279602794508357       11.61790687720185
   268   2 -0.20464576516029087      242.97629044351689      17.116316430371828      11.617906877121875
   269   2 -0.20464578738225686      100.29320427385152      58.239038283401158      11.617906876856299
   270   2 -0.20464594007998066      221.02504625552154      80.382042220801779      11.617906876672768
   271   2 -0.20464609898476688      210.04942438122541      10.789744106915206      11.617906876485645
   272   2 -0.2046457845061345       34.43947220603166      77.218755870720855      11.617906876456866
   273   2 -0.20464561519569674       253.9519122953366      74.055469710152735      11.617906876338308
   274   2 -0.20464587531121453      127.73225940282425      58.239038258998825      11.617906875838393
   275   2 -0.2046457407009834      127.73225943078738      7.6264576277017273      11.617906874879996
   276   2 -0.2046457920875464      45.415094235066448      17.116316355922908      11.617906874824076
   277   2 -0.20464595549921377      89.317582202601301      77.218755867203541      11.617906874747643
   278   2 -0.20464598454897306      45.415094257621313      61.402324546417631      11.617906874522372
   279   2 -0.2046460665872833      171.63474733530154      80.382042270474216      11.617906874312636
   280   2 -0.20464563427458637      39.927283288947208      80.382042358525837      11.617906873947177
   281   2 -0.20464578103423114      39.927283273986156      77.218755981001067      11.617906873699816
   282   2 -0.20464597476152657      160.65912541949675      36.096034294279285      11.617906873568911
   283   2 -0.2046457769188229      242.97629042505645      7.6264576902212031      11.617906873513064
   284   2 -0.20464584811900388      89.317582208674708      20.279602561980074      11.617906873168584
   285   2 -0.2046455050430227      210.04942439949696      70.892183686502605      11.617906873092011
   286   2 -0.2046458063216137      100.29320426919888      7.6264575960765475      11.617906872586403
   287   2 -0.20464585157240028      67.366338274066635      20.279602674068084      11.617906871769007