LAMMPS (29 Sep 2021)
Running on 7 partitions of processors
Step MaxReplicaForce MaxAtomForce GradV0 GradV1 GradVc EBF EBR RDT RD1 PE1 RD2 PE2 ... RDN PEN
0    12928.895    37696.492    30.611403    11619.104    12509.765    125300.33    132454.07    91.400836            0   -927604.92   0.16666667   -853524.42   0.33333333   -808378.66          0.5   -802304.59   0.66666667   -815072.47   0.83333333   -855329.31            1   -934758.66 
100    1400.9896    470.02772     9.628759    303.74255    780.47286    45278.012    80231.188    110.89602            0   -927607.72   0.18245263   -896518.25   0.34521515   -882329.71   0.48697678   -884660.82   0.62733051   -886717.82   0.77586905   -909752.32            1    -962560.9 
200    396.92884    2385.3279    1.6913517     40.93019    230.66515     42637.43    77972.703    121.75919            0   -927608.18   0.21338671   -907803.91   0.37558295   -884970.75    0.5065173    -886871.5   0.63535251   -888071.92    0.7756103    -912328.7            1   -962943.46 
300     776.1819    1186.4106   0.35958112    5.7989757    198.03817    42354.827    77697.245    124.84495            0    -927608.2   0.21783013   -908643.29   0.38291837   -885253.37    0.5113347      -887052   0.63726592    -888440.7   0.77739304   -915760.32            1   -962950.62 
400    269.22288    527.54786   0.11020416    1.5890514    192.10651      42126.8     77469.36    128.26353            0    -927608.2   0.21231182   -908856.76   0.37937943    -885481.4   0.50500869   -887137.57   0.62713131   -889297.17    0.7625859   -922961.94            1   -962950.76 
500    512.01961    2380.7417  0.048924447   0.39125027    186.78925    41934.177    77276.744     131.4191            0    -927608.2   0.20682717   -908996.25   0.37533246   -885674.03   0.49847879   -887293.07   0.61755636   -892101.85   0.75456412    -923557.1            1   -962950.77 
600    294.34016     1561.621  0.024897498   0.28963324    185.23968    41721.034    77063.601    134.80932            0    -927608.2   0.20164735   -909126.06   0.37153492   -885887.17    0.4921435   -887476.92   0.60869624   -894062.16     0.748862   -924222.13            1   -962950.77 
700     339.2212    2889.6682  0.014342721    0.2581926    191.91199    41449.146    76791.714    137.91015            0    -927608.2   0.19771409    -909245.4   0.36945049   -886159.06   0.48789495    -887585.6   0.60179464    -895416.1   0.74568117    -924753.9            1   -962950.77 
800    252.16721    3251.9406    0.0118238   0.23408378    165.56433    41174.224    76516.794    141.42405            0    -927608.2   0.19419731   -909372.86   0.36815339   -886433.98   0.48422904   -887694.71    0.5949268   -896596.31   0.74247069   -925222.33            1   -962950.77 
900    246.65338    3200.5885 0.0064680691   0.21788056     167.9767    40987.265    76329.835    144.02979            0    -927608.2   0.19221227   -909468.95   0.36815602   -886620.94   0.48258607   -887931.08    0.5914015    -897304.5   0.74029411    -925502.1            1   -962950.77 
1000    238.58181    3163.1133 0.0063118263   0.20914983    219.48241    40803.486    76146.056    145.57241            0    -927608.2   0.19126424   -909524.23   0.36877297   -886804.72   0.48230398   -888077.99   0.59023682   -897680.41   0.73931149   -925655.67            1   -962950.77 
1100    198.47971     2659.058 0.0067752422   0.20227613    170.80575    40585.398    75927.969    146.90632            0    -927608.2    0.1906247    -909570.5   0.36975972   -887022.81   0.48254492   -888204.73   0.58984945   -897947.25   0.73869586   -925806.18            1   -962950.77 
1200    175.84503     2574.871  0.005577585   0.19597971    161.74419    40456.819     75799.39    147.99171            0    -927608.2   0.19034161      -909610   0.37089079   -887151.38   0.48308207   -888299.29   0.58978275   -898126.72   0.73817552   -925912.73            1   -962950.77 
1300    151.18605    2262.1462 0.0098502258   0.19012178    155.43955    40338.296    75680.868    148.98133            0    -927608.2    0.1902534   -909647.18   0.37228877   -887269.91   0.48396292   -888391.83   0.59001285   -898282.06   0.73776108   -926016.32            1   -962950.77 
1400    211.25396    3598.1009 0.0083003315   0.18458685    152.77829    40214.644    75557.215    149.92876            0    -927608.2   0.19030118   -909683.21   0.37390293   -887393.56   0.48509978   -888482.06   0.59044026   -898475.57   0.73742178    -926149.8            1   -962950.77 
1500    230.81099    2561.4142 0.0085335172    0.1795229    159.04485     40088.99    75431.561    150.79695            0    -927608.2   0.19042361   -909715.62   0.37554311   -887519.21   0.48631626   -888593.36   0.59093625   -898682.73   0.73720988   -926339.49            1   -962950.77 
1600    219.06864    2180.7086 0.0055994847   0.17519429    162.88595    39965.948     75308.52    151.55345            0    -927608.2   0.19057714   -909742.87   0.37710398   -887642.25   0.48751918   -888681.42   0.59149824   -898848.65   0.73705563   -926632.67            1   -962950.77 
1700    180.89194    1648.1892 0.0074158083   0.16925023    181.89544    39726.476    75069.048    152.61543            0    -927608.2   0.19083704   -909779.23   0.37951609   -887881.73   0.48944003   -888803.09   0.59257883   -899008.36   0.73687257   -926903.76            1   -962950.77 
1800    159.03957    2714.7775 0.0068412128   0.16355802    159.99143    39529.136    74871.707    153.55273            0    -927608.2   0.19129949   -909807.72   0.38202225   -888079.07     0.491506    -888893.3   0.59377668    -899151.3   0.73666873   -926993.94            1   -962950.77 
1900    136.81189    1592.3502 0.0074072423   0.15935925    137.60052    39385.352    74727.923    154.26999            0    -927608.2   0.19176618   -909831.92   0.38413593   -888222.85   0.49327921   -888967.41   0.59482527   -899249.29   0.73650547   -927030.94            1   -962950.77 
2000    139.91381    950.74002 0.0068083965   0.15539703    140.36945     39280.67    74623.242       154.88            0    -927608.2   0.19223039   -909851.85   0.38601494   -888327.53   0.49486465   -889020.08   0.59575733   -899362.86   0.73634434   -927058.17            1   -962950.78 
2099    134.27981    817.75197 0.0089948258   0.15185034    134.62853     39181.33    74523.903    155.42811            0    -927608.2   0.19270337    -909869.3   0.38781416   -888426.87   0.49640041   -889091.39   0.59660473   -899463.39   0.73616835   -927083.42            1   -962950.78 
Climbing replica = 3
Step MaxReplicaForce MaxAtomForce GradV0 GradV1 GradVc EBF EBR RDT RD1 PE1 RD2 PE2 ... RDN PEN
2099    134.62784    824.86684  0.008860419   0.15188556    134.62784    39181.331    74523.903    155.42811            0    -927608.2   0.19270337    -909869.3   0.38781416   -888426.87   0.49640041   -889091.39   0.59660473   -899463.39   0.73616835   -927083.42            1   -962950.77 
2105    134.65489    826.02817 0.0093883998   0.15188018    134.65489    39181.136    74523.707    155.42921            0    -927608.2   0.19270417   -909869.33   0.38781722   -888427.07    0.4964036   -889091.78   0.59660653   -899463.53   0.73616816   -927083.47            1   -962950.77 
