LAMMPS (29 Sep 2021)
Processor partition = 1
# System Setup
units       real
dimension   3
boundary    p p s
atom_style  charge
neigh_modify  delay 5
atom_modify map array sort 0 0.0
newton      on

# Read Data
read_data ./image-0.lmp
Reading data file ...
  orthogonal box = (0.0000000 0.0000000 0.0000000) to (252.43931 94.898589 20.000000)
  8 by 2 by 1 MPI processor grid
  reading atoms ...
  8280 atoms
  read_data CPU = 0.105 seconds

# Force field setup
pair_style reaxff NULL
pair_coeff * * ./H-S-Mo.reaxff Mo S
mass 1 95.75
mass 2 32.06
# neigh_modify delay 10 check yes

# Molecular Static run setup
timestep 0.25  # metal 1=1ps; real 1=1fs

# Charge equllibrium step
fix 0 all qeq/reaxff 1 0.0 10.0 1.0e-6 reaxff  # Charge equillibrium at each step
thermo 10
# run 10000

# Minimization
fix 1 all box/relax x 0.0 y 0.0 vmax 0.01

thermo_style custom step pe lx ly lz pxx pyy pzz press
min_style cg
minimize 1e-10 1e-10 5000 10000

CITE-CITE-CITE-CITE-CITE-CITE-CITE-CITE-CITE-CITE-CITE-CITE-CITE

Your simulation uses code contributions which should be cited:

- pair reaxff command:

@Article{Aktulga12,
 author = {H. M. Aktulga, J. C. Fogarty, S. A. Pandit, A. Y. Grama},
 title = {Parallel reactive molecular dynamics: Numerical methods and algorithmic techniques},
 journal = {Parallel Computing},
 year =    2012,
 volume =  38,
 pages =   {245--259}
}

- fix qeq/reaxff command:

@Article{Aktulga12,
 author = {H. M. Aktulga, J. C. Fogarty, S. A. Pandit, A. Y. Grama},
 title = {Parallel reactive molecular dynamics: Numerical methods and algorithmic techniques},
 journal = {Parallel Computing},
 year =    2012,
 volume =  38,
 pages =   {245--259}
}

CITE-CITE-CITE-CITE-CITE-CITE-CITE-CITE-CITE-CITE-CITE-CITE-CITE

WARNING: Using 'neigh_modify every 1 delay 0 check yes' setting during minimization (../min.cpp:188)
Neighbor list info ...
  update every 1 steps, delay 0 steps, check yes
  max neighbors/atom: 2000, page size: 100000
  master list distance cutoff = 12
  ghost atom cutoff = 12
  binsize = 6, bins = 43 16 1
  2 neighbor lists, perpetual/occasional/extra = 2 0 0
  (1) pair reaxff, perpetual
      attributes: half, newton off, ghost
      pair build: half/bin/newtoff/ghost
      stencil: full/ghost/bin/3d
      bin: standard
  (2) fix qeq/reaxff, perpetual, copy from (1)
      attributes: half, newton off, ghost
      pair build: copy
      stencil: none
      bin: none
Per MPI rank memory allocation (min/avg/max) = 28.38 | 28.66 | 28.76 Mbytes
Step PotEng Lx Ly Lz Pxx Pyy Pzz Press 
       0   -927599.07    252.43931    94.898589    3.2398727    95.078367   -171.28286   -481.59633   -185.93361 
      10   -927599.91    252.44265    94.899297    3.2400128    10.042037   -284.21732   -376.42281   -216.86603 
      20   -927600.67    252.44368    94.899019    3.2401406    61.466989   -230.06693   -403.85335   -190.81776 
      30   -927601.39    252.44473      94.8995    3.2402669    100.45198   -291.06946   -373.99934   -188.20561 
      40   -927602.03    252.44697    94.899026    3.2403912    70.243408   -210.79581   -376.30929   -172.28723 
      50   -927602.65    252.44748    94.899452    3.2405147    129.48776   -257.66293   -361.29843   -163.15787 
      60   -927603.18    252.44992    94.899023    3.2406242    75.284061    -183.8789   -350.49084   -153.02856 
      70    -927603.7    252.45057    94.899504     3.240733    113.79371   -239.06587   -323.51435    -149.5955 
      80   -927604.14    252.45258    94.899082    3.2408373    74.189739   -163.46093   -321.02581   -136.76566 
      90   -927604.56    252.45312    94.899515    3.2409402    109.44339   -210.22843   -297.60562   -132.79689 
     100   -927604.92    252.45493    94.899152    3.2410303    72.650522   -143.06327   -293.98722   -121.46666 
     102   -927604.92    252.45723    94.898021    3.2410304   -45.719234    18.855002   -310.72969   -112.53131 
Loop time of 7.18784 on 16 procs for 102 steps with 8280 atoms

99.7% CPU use with 16 MPI tasks x no OpenMP threads

Minimization stats:
  Stopping criterion = energy tolerance
  Energy initial, next-to-last, final = 
     -927599.072566262  -927604.919847452  -927604.919729572
  Force two-norm initial, final = 228.35560 63.800842
  Force max component initial, final = 193.88066 51.750782
  Final line search alpha, max atom move = 0.00065661968 0.033980582
  Iterations, force evaluations = 102 204

MPI task timing breakdown:
Section |  min time  |  avg time  |  max time  |%varavg| %total
---------------------------------------------------------------
Pair    | 4.9436     | 5.7119     | 6.0163     |  14.8 | 79.47
Neigh   | 0.38422    | 0.40363    | 0.43137    |   2.6 |  5.62
Comm    | 0.029898   | 0.34983    | 1.0906     |  59.6 |  4.87
Output  | 0.00048649 | 0.00051736 | 0.00056342 |   0.0 |  0.01
Modify  | 0.61363    | 0.64181    | 0.66116    |   2.1 |  8.93
Other   |            | 0.08013    |            |       |  1.11

Nlocal:        517.500 ave         525 max         510 min
Histogram: 8 0 0 0 0 0 0 0 0 8
Nghost:        849.250 ave         863 max         825 min
Histogram: 4 0 0 0 0 4 0 0 0 8
Neighs:        48525.0 ave       49147 max       47903 min
Histogram: 8 0 0 0 0 0 0 0 0 8

Total # of neighbors = 776400
Ave neighs/atom = 93.768116
Neighbor list builds = 192
Dangerous builds = 187
reset_timestep	0
fix 2 all neb 1.0 parallel ideal
unfix 1

min_style quickmin
variable u uloop 200

# region S_bottom_region block INF INF INF INF INF 10.5
# group S_bottom_group region S_bottom_region
# fix 1 S_bottom_group setforce 0.0 0.0 0.0

dump  1 all atom 10 dump.neb.$u
dump  1 all atom 10 dump.neb.2
neb	  1e-6 1e-6 10000 10000 100 final ./image-1.lmp
WARNING: Using 'neigh_modify every 1 delay 0 check yes' setting during minimization (../min.cpp:188)
Per MPI rank memory allocation (min/avg/max) = 28.27 | 28.56 | 28.67 Mbytes
Step PotEng Lx Ly Lz Pxx Pyy Pzz Press 
       0   -853524.42    252.45723    94.898021    3.2409314    410479.93   -89311.609    281543.44    200903.92 
      10   -855488.81    252.45723    94.898021    3.2409314    379911.76   -107498.61    307908.04    193440.39 
      20    -861160.5    252.45723    94.898021    3.2409314    290608.28    -148874.8     369982.4    170571.96 
      30   -868458.11    252.45723    94.898021    3.2409314    196409.62   -152227.86    370549.73    138243.83 
      40   -874586.06    252.45723    94.898021    3.2409314    173018.76   -90164.187    261006.96    114620.51 
      50   -878843.23    252.45723    94.898021    3.2409314    203507.88   -13422.498     129041.3    106375.56 
      60   -882149.64    252.45723    94.898021    3.2409314    259495.89    68245.474    22499.881    116747.08 
      70    -885495.7    252.45723    94.898021    3.2409314    307886.05     150011.7   -38982.851     139638.3 
      80   -888242.74    252.45723    94.898021    3.2409314    326049.35    174562.13   -35221.905    155129.86 
      90   -891517.12    252.45723    94.898021    3.2409314    367834.38    206475.37    -20082.96    184742.26 
     100   -896518.25    252.45723    94.898021    3.2409314    412153.43    307077.72    5014.3152    241415.15 
     110   -899829.33    252.45723    94.898021    3.2409314    317112.66    220806.43   -49771.728    162715.79 
     120   -901951.36    252.45723    94.898021    3.2409314    296457.78    224747.04   -40186.468    160339.45 
     130   -903754.32    252.45723    94.898021    3.2409314    275955.94    226933.39   -31201.368    157229.32 
     140   -905159.09    252.45723    94.898021    3.2409314    260392.93       231705   -24047.094    156016.95 
     150   -905996.65    252.45723    94.898021    3.2409314    244837.83    217710.03   -29167.236    144460.21 
     160   -906411.21    252.45723    94.898021    3.2409314    243270.91    222987.37   -27646.995    146203.76 
     170    -906793.8    252.45723    94.898021    3.2409314    243961.07    228739.64   -27027.294    148557.81 
     180    -907180.8    252.45723    94.898021    3.2409314    245640.27    233603.73   -26555.286    150896.24 
     190   -907524.31    252.45723    94.898021    3.2409314    246897.08    236744.01   -26158.244    152494.28 
     200   -907803.91    252.45723    94.898021    3.2409314       247883     239089.8   -25211.436    153920.45 
     210   -908012.53    252.45723    94.898021    3.2409314    248587.74    240870.98   -24123.483    155111.74 
     220   -908168.72    252.45723    94.898021    3.2409314    249333.02    242895.63   -22913.056    156438.53 
     230    -908290.2    252.45723    94.898021    3.2409314    249898.18    244290.58   -21862.366    157442.13 
     240   -908383.36    252.45723    94.898021    3.2409314    250178.45    245179.45   -21009.369    158116.18 
     250   -908455.57    252.45723    94.898021    3.2409314    250342.96    245782.66   -20326.522     158599.7 
     260   -908512.18    252.45723    94.898021    3.2409314    250336.72    246109.41   -19841.666    158868.15 
     270   -908556.41    252.45723    94.898021    3.2409314    250282.43    246279.62   -19473.802    159029.42 
     280   -908591.14    252.45723    94.898021    3.2409314    250258.49    246402.05   -19218.877    159147.22 
     290   -908619.43    252.45723    94.898021    3.2409314    250266.43    246566.96   -19005.329    159276.02 
     300   -908643.29    252.45723    94.898021    3.2409314    250265.08    246698.58   -18851.704    159370.65 
     310   -908664.23    252.45723    94.898021    3.2409314    250261.65    246835.25   -18705.323    159463.86 
     320   -908683.26    252.45723    94.898021    3.2409314    250255.11    246952.41   -18583.223    159541.43 
     330   -908701.45    252.45723    94.898021    3.2409314    250230.18    247084.51   -18465.173     159616.5 
     340   -908719.96    252.45723    94.898021    3.2409314    250199.93     247235.7   -18349.395    159695.41 
     350   -908739.84    252.45723    94.898021    3.2409314    250154.74     247423.8   -18245.337    159777.73 
     360   -908761.85    252.45723    94.898021    3.2409314    250065.91    247635.97   -18125.179     159858.9 
     370   -908786.56    252.45723    94.898021    3.2409314    249979.15    247963.92   -17985.579    159985.83 
     380   -908813.63    252.45723    94.898021    3.2409314    249787.59    248078.61   -17830.301    160011.97 
     390   -908836.76    252.45723    94.898021    3.2409314    249586.65    248033.77    -17669.18    159983.75 
     400   -908856.76    252.45723    94.898021    3.2409314    249207.24    247783.06   -17788.142    159734.05 
     410   -908873.02    252.45723    94.898021    3.2409314    249002.27     247782.1   -17723.304    159687.02 
     420   -908886.56    252.45723    94.898021    3.2409314    248825.34    247724.76   -17708.671    159613.81 
     430   -908898.81    252.45723    94.898021    3.2409314    248675.33    247761.13   -17665.079    159590.46 
     440   -908911.37    252.45723    94.898021    3.2409314    248538.63    247813.64   -17640.899    159570.46 
     450   -908924.65    252.45723    94.898021    3.2409314    248405.93    247886.39   -17638.092    159551.41 
     460   -908938.56    252.45723    94.898021    3.2409314    248237.69    247945.87   -17593.493    159530.02 
     470   -908953.05    252.45723    94.898021    3.2409314    248051.15    248019.58   -17536.777    159511.32 
     480   -908967.66    252.45723    94.898021    3.2409314    247880.84    248066.06   -17535.884    159470.34 
     490   -908982.37    252.45723    94.898021    3.2409314    247674.85    248078.46   -17506.474    159415.61 
     500   -908996.25    252.45723    94.898021    3.2409314    247464.06    248122.46   -17422.299    159388.07 
     510    -909008.9    252.45723    94.898021    3.2409314    247292.82    248118.62   -17445.271    159322.06 
     520   -909021.31    252.45723    94.898021    3.2409314    247110.76    248139.75   -17418.194    159277.44 
     530   -909033.33    252.45723    94.898021    3.2409314    246923.26    248187.14   -17357.623    159250.93 
     540   -909045.36    252.45723    94.898021    3.2409314     246742.7    248248.29   -17304.772    159228.74 
     550   -909058.11    252.45723    94.898021    3.2409314    246556.44    248312.65   -17287.307    159193.93 
     560   -909071.38    252.45723    94.898021    3.2409314    246352.85       248366   -17250.681    159156.06 
     570    -909085.1    252.45723    94.898021    3.2409314    246143.78    248430.87   -17221.884    159117.59 
     580      -909099    252.45723    94.898021    3.2409314    245916.63    248471.11   -17188.055    159066.56 
     590   -909112.57    252.45723    94.898021    3.2409314    245690.37    248510.26   -17157.056    159014.52 
     600   -909126.06    252.45723    94.898021    3.2409314    245465.24    248557.96   -17122.642    158966.85 
     610   -909139.15    252.45723    94.898021    3.2409314    245242.68    248599.49   -17093.521    158916.21 
     620   -909152.33    252.45723    94.898021    3.2409314    245027.22    248658.17   -17065.379    158873.33 
     630   -909165.39    252.45723    94.898021    3.2409314    244797.32    248701.18   -17031.759    158822.25 
     640   -909178.15    252.45723    94.898021    3.2409314    244572.52    248753.44   -17007.773    158772.73 
     650   -909190.71    252.45723    94.898021    3.2409314    244334.32    248803.92   -16969.054    158723.06 
     660   -909202.62    252.45723    94.898021    3.2409314    244106.33     248831.7   -16968.719    158656.44 
     670   -909213.33    252.45723    94.898021    3.2409314    243890.85    248849.97   -16954.584    158595.41 
     680   -909223.23    252.45723    94.898021    3.2409314    243693.92    248917.13   -16904.475    158568.86 
     690   -909233.64    252.45723    94.898021    3.2409314    243491.44    248997.05   -16855.253    158544.42 
     700    -909245.4    252.45723    94.898021    3.2409314    243270.52    249105.98   -16808.815    158522.56 
     710   -909257.76    252.45723    94.898021    3.2409314    243014.24    249147.25   -16797.374    158454.71 
     720   -909270.44    252.45723    94.898021    3.2409314    242741.65    249218.01   -16731.187    158409.49 
     730   -909283.24    252.45723    94.898021    3.2409314    242457.66    249283.26   -16652.799    158362.71 
     740   -909296.02    252.45723    94.898021    3.2409314     242192.1    249309.45   -16652.123    158283.14 
     750   -909308.96    252.45723    94.898021    3.2409314    241916.12    249383.36   -16569.238    158243.41 
     760   -909321.98    252.45723    94.898021    3.2409314    241627.04    249434.38   -16486.057    158191.79 
     770   -909334.44    252.45723    94.898021    3.2409314    241366.77    249458.14   -16470.822    158118.03 
     780   -909347.33    252.45723    94.898021    3.2409314    241099.37    249512.98   -16436.705    158058.55 
     790   -909360.22    252.45723    94.898021    3.2409314    240793.87    249563.79   -16381.128    157992.18 
     800   -909372.86    252.45723    94.898021    3.2409314     240545.6    249584.31   -16350.089    157926.61 
     810   -909384.74    252.45723    94.898021    3.2409314    240262.96    249630.86   -16218.584    157891.75 
     820   -909395.36    252.45723    94.898021    3.2409314    240008.47    249636.73    -16187.93    157819.09 
     830   -909405.52    252.45723    94.898021    3.2409314    239773.05    249646.83   -16205.469    157738.14 
     840   -909415.87    252.45723    94.898021    3.2409314    239525.16    249732.54   -16076.979    157726.91 
     850   -909425.91    252.45723    94.898021    3.2409314     239284.6    249765.11   -16074.636    157658.36 
     860   -909435.46    252.45723    94.898021    3.2409314     239050.9    249797.56   -15982.571    157621.96 
     870   -909444.73    252.45723    94.898021    3.2409314    238836.33    249835.32   -15926.812    157581.61 
     880   -909453.61    252.45723    94.898021    3.2409314    238585.62    249844.88   -15919.805    157503.56 
     890   -909461.61    252.45723    94.898021    3.2409314    238386.15    249854.94   -15875.513    157455.19 
     900   -909468.95    252.45723    94.898021    3.2409314    238186.71    249858.62   -15839.019     157402.1 
     910   -909475.74    252.45723    94.898021    3.2409314    238002.12    249869.01   -15850.673    157340.15 
     920   -909482.17    252.45723    94.898021    3.2409314    237852.46    249899.32    -15763.44    157329.45 
     930   -909488.28    252.45723    94.898021    3.2409314    237678.63    249940.37   -15728.272    157296.91 
     940   -909494.05    252.45723    94.898021    3.2409314    237516.54    249935.69   -15710.849    157247.13 
     950   -909499.52    252.45723    94.898021    3.2409314    237377.91    249982.64   -15652.352    157236.07 
     960   -909504.79    252.45723    94.898021    3.2409314    237241.35    249978.76   -15632.336    157195.93 
     970   -909509.86    252.45723    94.898021    3.2409314    237103.18    250006.85   -15606.476    157167.85 
     980   -909514.79    252.45723    94.898021    3.2409314    236952.44    250023.95    -15603.22    157124.39 
     990   -909519.58    252.45723    94.898021    3.2409314    236827.45    250053.25   -15564.056    157105.55 
    1000   -909524.23    252.45723    94.898021    3.2409314    236687.16    250071.31   -15534.875    157074.53 
    1010   -909528.89    252.45723    94.898021    3.2409314    236547.13    250085.12    -15539.35    157030.97 
    1020   -909533.58    252.45723    94.898021    3.2409314    236400.06    250105.47   -15509.546    156998.66 
    1030   -909538.27    252.45723    94.898021    3.2409314    236264.77    250113.87   -15497.391    156960.42 
    1040   -909543.03    252.45723    94.898021    3.2409314    236120.99    250136.73     -15478.7    156926.34 
    1050   -909547.85    252.45723    94.898021    3.2409314    235966.84    250141.84   -15493.418    156871.75 
    1060   -909552.56    252.45723    94.898021    3.2409314     235816.7    250194.96   -15422.561    156863.03 
    1070   -909557.09    252.45723    94.898021    3.2409314    235665.29    250204.44    -15438.31    156810.47 
    1080   -909561.56    252.45723    94.898021    3.2409314    235526.56    250178.97   -15491.419    156738.04 
    1090   -909566.07    252.45723    94.898021    3.2409314    235393.93     250250.7   -15399.058    156748.52 
    1100    -909570.5    252.45723    94.898021    3.2409314     235269.7    250284.46   -15361.599    156730.86 
    1110   -909574.87    252.45723    94.898021    3.2409314    235134.86    250297.35   -15344.534    156695.89 
    1120   -909579.16    252.45723    94.898021    3.2409314    235012.47    250309.32   -15328.986    156664.27 
    1130   -909583.29    252.45723    94.898021    3.2409314     234894.7    250294.85   -15339.953    156616.53 
    1140   -909587.27    252.45723    94.898021    3.2409314     234750.6     250318.6   -15316.762    156584.15 
    1150   -909591.15    252.45723    94.898021    3.2409314    234651.69    250376.57   -15234.639    156597.87 
    1160   -909595.05    252.45723    94.898021    3.2409314    234518.51    250354.97   -15279.016    156531.49 
    1170   -909598.92    252.45723    94.898021    3.2409314    234410.44    250390.29   -15222.338    156526.13 
    1180   -909602.72    252.45723    94.898021    3.2409314    234300.92    250414.38   -15182.127    156511.06 
    1190   -909606.39    252.45723    94.898021    3.2409314    234170.94    250413.84   -15207.905    156458.96 
    1200      -909610    252.45723    94.898021    3.2409314    234075.16    250442.34    -15159.56    156452.65 
    1210   -909613.64    252.45723    94.898021    3.2409314    233955.05    250468.32   -15134.031    156429.78 
    1220   -909617.31    252.45723    94.898021    3.2409314    233837.39    250480.88   -15130.722    156395.85 
    1230   -909620.98    252.45723    94.898021    3.2409314    233736.38    250496.25    -15097.53    156378.37 
    1240    -909624.6    252.45723    94.898021    3.2409314    233627.24    250532.28   -15044.822    156371.56 
    1250   -909628.19    252.45723    94.898021    3.2409314    233500.88    250540.49   -15045.054    156332.11 
    1260   -909631.83    252.45723    94.898021    3.2409314    233397.31    250539.18   -15028.432    156302.68 
    1270   -909635.59    252.45723    94.898021    3.2409314    233265.43     250582.5   -14978.345    156289.86 
    1280   -909639.41    252.45723    94.898021    3.2409314    233135.08    250588.56   -14977.843     156248.6 
    1290   -909643.26    252.45723    94.898021    3.2409314    233012.62     250582.9   -14971.205     156208.1 
    1300   -909647.18    252.45723    94.898021    3.2409314    232900.25    250624.83   -14884.293     156213.6 
    1310   -909651.04    252.45723    94.898021    3.2409314    232755.38    250646.82   -14865.578    156178.88 
    1320   -909654.79    252.45723    94.898021    3.2409314     232636.3    250638.24   -14857.294    156139.08 
    1330   -909658.44    252.45723    94.898021    3.2409314    232504.93    250659.15    -14818.57    156115.17 
    1340   -909662.05    252.45723    94.898021    3.2409314    232365.66    250696.06   -14775.129    156095.53 
    1350   -909665.65    252.45723    94.898021    3.2409314    232250.76    250712.72   -14736.806    156075.56 
    1360   -909669.17    252.45723    94.898021    3.2409314    232129.74    250693.59    -14760.55    156020.93 
    1370   -909672.61    252.45723    94.898021    3.2409314     232027.7     250728.2   -14694.301    156020.53 
    1380   -909676.07    252.45723    94.898021    3.2409314    231902.54    250742.13   -14689.005    155985.22 
    1390   -909679.63    252.45723    94.898021    3.2409314    231799.89    250720.46   -14692.432    155942.64 
    1400   -909683.21    252.45723    94.898021    3.2409314    231677.63    250740.63   -14662.181     155918.7 
    1410   -909686.78    252.45723    94.898021    3.2409314    231567.72    250773.86   -14599.268     155914.1 
    1420   -909690.38    252.45723    94.898021    3.2409314    231439.15    250774.33   -14608.487    155868.33 
    1430   -909693.97    252.45723    94.898021    3.2409314    231318.03    250804.09   -14537.843    155861.43 
    1440   -909697.52    252.45723    94.898021    3.2409314    231202.01    250796.16    -14560.73    155812.48 
    1450   -909700.98    252.45723    94.898021    3.2409314       231052    250824.81   -14531.515    155781.77 
    1460   -909704.29    252.45723    94.898021    3.2409314    230955.78    250854.28   -14463.858    155782.07 
    1470   -909707.47    252.45723    94.898021    3.2409314    230842.48    250838.91   -14486.341    155731.68 
    1480   -909710.47    252.45723    94.898021    3.2409314    230728.86    250858.22   -14452.516    155711.52 
    1490   -909713.06    252.45723    94.898021    3.2409314    230634.54    250875.52   -14421.929    155696.04 
    1500   -909715.62    252.45723    94.898021    3.2409314    230543.07    250861.14   -14434.716     155656.5 
    1510   -909718.03    252.45723    94.898021    3.2409314    230460.73    250886.71   -14392.707    155651.58 
    1520   -909720.36    252.45723    94.898021    3.2409314    230369.58    250891.63    -14383.03    155626.06 
    1530   -909722.51    252.45723    94.898021    3.2409314    230288.37    250908.69   -14354.391    155614.22 
    1540   -909724.88    252.45723    94.898021    3.2409314    230200.91    250910.83   -14353.624    155586.04 
    1550   -909727.54    252.45723    94.898021    3.2409314    230114.71    250927.74   -14317.878    155574.86 
    1560   -909730.04    252.45723    94.898021    3.2409314    230013.48    250945.12    -14299.76    155552.94 
    1570   -909732.99    252.45723    94.898021    3.2409314    229904.43     250973.9    -14260.33    155539.33 
    1580   -909736.37    252.45723    94.898021    3.2409314    229794.21    250979.65   -14247.555    155508.77 
    1590   -909739.73    252.45723    94.898021    3.2409314    229671.31    251006.51   -14199.404    155492.81 
    1600   -909742.87    252.45723    94.898021    3.2409314    229559.61    251001.26   -14200.716    155453.39 
    1610    -909746.4    252.45723    94.898021    3.2409314    229411.74    251031.02   -14163.458    155426.43 
    1620   -909749.97    252.45723    94.898021    3.2409314    229276.72    251040.54   -14153.148    155388.04 
    1630   -909753.56    252.45723    94.898021    3.2409314     229146.5    251065.47   -14100.685    155370.43 
    1640   -909757.17    252.45723    94.898021    3.2409314    229008.33    251064.11    -14090.35    155327.36 
    1650   -909760.79    252.45723    94.898021    3.2409314    228861.22    251092.33    -14051.83    155300.57 
    1660   -909764.39    252.45723    94.898021    3.2409314    228717.37    251083.35   -14065.317    155245.13 
    1670      -909768    252.45723    94.898021    3.2409314       228572     251113.8   -14006.041    155226.59 
    1680   -909771.55    252.45723    94.898021    3.2409314     228419.6    251134.12    -13986.71    155189.01 
    1690    -909775.3    252.45723    94.898021    3.2409314    228271.02    251151.21    -13962.87    155153.12 
    1700   -909779.23    252.45723    94.898021    3.2409314    228116.33    251167.39   -13933.677    155116.68 
    1710   -909783.17    252.45723    94.898021    3.2409314    227941.46    251194.84   -13903.069    155077.74 
    1720   -909786.47    252.45723    94.898021    3.2409314    227794.75    251206.87    -13904.63    155032.33 
    1730   -909789.75    252.45723    94.898021    3.2409314    227647.33    251242.97    -13851.76    155012.85 
    1740   -909790.51    252.45723    94.898021    3.2409314    227489.46    251306.62    -13847.48    154982.87 
    1750   -909793.45    252.45723    94.898021    3.2409314    227341.36    251309.78   -13862.982    154929.39 
    1760   -909796.48    252.45723    94.898021    3.2409314    227207.72    251318.44   -13840.119    154895.35 
    1770   -909799.36    252.45723    94.898021    3.2409314    227074.41    251366.61   -13770.041    154890.32 
    1780   -909802.19    252.45723    94.898021    3.2409314    226962.21    251337.61   -13807.011    154830.94 
    1790   -909804.93    252.45723    94.898021    3.2409314     226843.5    251362.78   -13765.197    154813.69 
    1800   -909807.72    252.45723    94.898021    3.2409314    226720.68    251407.42   -13712.111    154805.33 
    1810   -909810.52    252.45723    94.898021    3.2409314    226600.93    251394.37   -13731.006    154754.77 
    1820   -909813.25    252.45723    94.898021    3.2409314    226480.04    251409.95   -13679.802    154736.73 
    1830   -909815.84    252.45723    94.898021    3.2409314    226365.62    251455.45   -13603.978    154739.03 
    1840   -909818.31    252.45723    94.898021    3.2409314    226244.17    251416.44   -13670.621    154663.33 
    1850   -909820.73    252.45723    94.898021    3.2409314    226137.26     251432.8   -13630.062    154646.66 
    1860   -909823.11    252.45723    94.898021    3.2409314     226047.1    251470.25   -13562.939    154651.47 
    1870    -909825.4    252.45723    94.898021    3.2409314    225932.18    251474.96   -13554.652     154617.5 
    1880   -909827.61    252.45723    94.898021    3.2409314     225843.9     251470.3   -13553.535    154586.89 
    1890   -909829.75    252.45723    94.898021    3.2409314    225751.07    251509.94    -13487.27    154591.25 
    1900   -909831.92    252.45723    94.898021    3.2409314    225645.87    251519.19   -13483.235    154560.61 
    1910   -909834.12    252.45723    94.898021    3.2409314    225546.84    251526.32   -13458.428    154538.24 
    1920   -909836.28    252.45723    94.898021    3.2409314    225447.74    251560.96   -13404.585     154534.7 
    1930    -909838.4    252.45723    94.898021    3.2409314    225356.49    251551.58   -13405.043    154501.01 
    1940   -909840.46    252.45723    94.898021    3.2409314    225247.91    251553.99    -13398.53    154467.79 
    1950   -909842.42    252.45723    94.898021    3.2409314    225169.26    251578.68   -13352.181    154465.25 
    1960   -909844.33    252.45723    94.898021    3.2409314     225083.5    251572.81   -13366.122    154430.06 
    1970   -909846.24    252.45723    94.898021    3.2409314    224988.13    251588.63   -13334.577    154414.06 
    1980   -909848.12    252.45723    94.898021    3.2409314    224900.34    251596.93   -13307.273    154396.67 
    1990   -909849.96    252.45723    94.898021    3.2409314    224823.14    251606.44   -13294.911    154378.23 
    2000   -909851.85    252.45723    94.898021    3.2409314    224727.23    251593.91   -13299.543    154340.53 
    2010   -909853.75    252.45723    94.898021    3.2409314    224632.21    251620.44   -13258.443     154331.4 
    2020    -909855.6    252.45723    94.898021    3.2409314    224541.82    251648.18   -13212.456    154325.85 
    2030    -909857.4    252.45723    94.898021    3.2409314    224457.72    251640.29   -13209.222    154296.26 
    2040   -909859.15    252.45723    94.898021    3.2409314    224367.61     251645.6   -13192.697     154273.5 
    2050    -909860.9    252.45723    94.898021    3.2409314    224280.98    251662.15   -13164.722    154259.47 
    2060   -909862.64    252.45723    94.898021    3.2409314    224197.94    251677.73    -13133.54    154247.38 
    2070   -909864.32    252.45723    94.898021    3.2409314    224111.72    251677.48   -13121.803    154222.47 
    2080   -909866.01    252.45723    94.898021    3.2409314    224026.61    251705.23   -13086.875    154214.99 
    2090   -909867.73    252.45723    94.898021    3.2409314    223947.25    251691.21   -13097.293    154180.39 
    2099    -909869.3    252.45723    94.898021    3.2409314     223867.2    251695.69   -13091.188    154157.23 
Loop time of 87.619 on 16 procs for 2099 steps with 8280 atoms

99.8% CPU use with 16 MPI tasks x no OpenMP threads

Minimization stats:
  Stopping criterion = energy tolerance
  Energy initial, next-to-last, final = 
     -853524.419254976  -909869.119954486  -909869.295162417
  Force two-norm initial, final = 9591.6833 56.101149
  Force max component initial, final = 163.66400 2.8176236
  Final line search alpha, max atom move = 0.0000000 0.0000000
  Iterations, force evaluations = 2099 2099

MPI task timing breakdown:
Section |  min time  |  avg time  |  max time  |%varavg| %total
---------------------------------------------------------------
Pair    | 52.869     | 63.784     | 70.312     |  59.5 | 72.80
Neigh   | 0          | 0          | 0          |   0.0 |  0.00
Comm    | 0.11822    | 4.2347     | 12.512     | 180.3 |  4.83
Output  | 0.25892    | 0.25923    | 0.26002    |   0.0 |  0.30
Modify  | 16.522     | 18.964     | 24.263     |  59.7 | 21.64
Other   |            | 0.3771     |            |       |  0.43

Nlocal:        517.500 ave         525 max         510 min
Histogram: 8 0 0 0 0 0 0 0 0 8
Nghost:        849.250 ave         862 max         840 min
Histogram: 4 0 0 8 0 0 0 0 0 4
Neighs:        48992.0 ave       49614 max       48370 min
Histogram: 8 0 0 0 0 0 0 0 0 8

Total # of neighbors = 783872
Ave neighs/atom = 94.670531
Neighbor list builds = 0
Dangerous builds = 0
WARNING: Using 'neigh_modify every 1 delay 0 check yes' setting during minimization (../min.cpp:188)
Per MPI rank memory allocation (min/avg/max) = 28.27 | 28.56 | 28.68 Mbytes
Step PotEng Lx Ly Lz Pxx Pyy Pzz Press 
    2099    -909869.3    252.45723    94.898021     3.454561    210023.28    236130.87   -12281.654    144624.17 
    2100    -909869.3    252.45723    94.898021     3.454561    210017.73     236121.4   -12285.182    144617.98 
    2105   -909869.33    252.45723    94.898021     3.454561    210015.45    236122.62   -12282.453    144618.54 
Loop time of 0.295597 on 16 procs for 6 steps with 8280 atoms

98.9% CPU use with 16 MPI tasks x no OpenMP threads

Minimization stats:
  Stopping criterion = energy tolerance
  Energy initial, next-to-last, final = 
     -909869.295209446  -909869.317545959  -909869.328518299
  Force two-norm initial, final = 56.100833 55.376129
  Force max component initial, final = 2.8176623 2.3639290
  Final line search alpha, max atom move = 0.0000000 0.0000000
  Iterations, force evaluations = 6 6

MPI task timing breakdown:
Section |  min time  |  avg time  |  max time  |%varavg| %total
---------------------------------------------------------------
Pair    | 0.17416    | 0.21437    | 0.23658    |   4.0 | 72.52
Neigh   | 0          | 0          | 0          |   0.0 |  0.00
Comm    | 0.00034145 | 0.016037   | 0.043742   |  10.0 |  5.43
Output  | 0.0011664  | 0.0011693  | 0.0011729  |   0.0 |  0.40
Modify  | 0.051379   | 0.0615     | 0.081091   |   3.9 | 20.81
Other   |            | 0.00252    |            |       |  0.85

Nlocal:        517.500 ave         525 max         510 min
Histogram: 8 0 0 0 0 0 0 0 0 8
Nghost:        849.375 ave         885 max         825 min
Histogram: 4 0 2 4 0 0 4 0 0 2
Neighs:        49452.5 ave       50160 max       48763 min
Histogram: 6 2 0 0 0 0 0 0 2 6

Total # of neighbors = 791240
Ave neighs/atom = 95.560386
Neighbor list builds = 0
Dangerous builds = 0
Total wall time: 0:01:36
