LAMMPS (29 Sep 2021)
Processor partition = 6
# System Setup
units       real
dimension   3
boundary    p p s
atom_style  charge
neigh_modify  delay 5
atom_modify map array sort 0 0.0
newton      on

# Read Data
read_data ./image-0.lmp
Reading data file ...
  orthogonal box = (0.0000000 0.0000000 0.0000000) to (252.43931 94.898589 20.000000)
  8 by 2 by 1 MPI processor grid
  reading atoms ...
  8280 atoms
  read_data CPU = 0.100 seconds

# Force field setup
pair_style reaxff NULL
pair_coeff * * ./H-S-Mo.reaxff Mo S
mass 1 95.75
mass 2 32.06
# neigh_modify delay 10 check yes

# Molecular Static run setup
timestep 0.25  # metal 1=1ps; real 1=1fs

# Charge equllibrium step
fix 0 all qeq/reaxff 1 0.0 10.0 1.0e-6 reaxff  # Charge equillibrium at each step
thermo 10
# run 10000

# Minimization
fix 1 all box/relax x 0.0 y 0.0 vmax 0.01

thermo_style custom step pe lx ly lz pxx pyy pzz press
min_style cg
minimize 1e-10 1e-10 5000 10000

CITE-CITE-CITE-CITE-CITE-CITE-CITE-CITE-CITE-CITE-CITE-CITE-CITE

Your simulation uses code contributions which should be cited:

- pair reaxff command:

@Article{Aktulga12,
 author = {H. M. Aktulga, J. C. Fogarty, S. A. Pandit, A. Y. Grama},
 title = {Parallel reactive molecular dynamics: Numerical methods and algorithmic techniques},
 journal = {Parallel Computing},
 year =    2012,
 volume =  38,
 pages =   {245--259}
}

- fix qeq/reaxff command:

@Article{Aktulga12,
 author = {H. M. Aktulga, J. C. Fogarty, S. A. Pandit, A. Y. Grama},
 title = {Parallel reactive molecular dynamics: Numerical methods and algorithmic techniques},
 journal = {Parallel Computing},
 year =    2012,
 volume =  38,
 pages =   {245--259}
}

CITE-CITE-CITE-CITE-CITE-CITE-CITE-CITE-CITE-CITE-CITE-CITE-CITE

WARNING: Using 'neigh_modify every 1 delay 0 check yes' setting during minimization (../min.cpp:188)
Neighbor list info ...
  update every 1 steps, delay 0 steps, check yes
  max neighbors/atom: 2000, page size: 100000
  master list distance cutoff = 12
  ghost atom cutoff = 12
  binsize = 6, bins = 43 16 1
  2 neighbor lists, perpetual/occasional/extra = 2 0 0
  (1) pair reaxff, perpetual
      attributes: half, newton off, ghost
      pair build: half/bin/newtoff/ghost
      stencil: full/ghost/bin/3d
      bin: standard
  (2) fix qeq/reaxff, perpetual, copy from (1)
      attributes: half, newton off, ghost
      pair build: copy
      stencil: none
      bin: none
Per MPI rank memory allocation (min/avg/max) = 28.38 | 28.66 | 28.76 Mbytes
Step PotEng Lx Ly Lz Pxx Pyy Pzz Press 
       0   -927599.07    252.43931    94.898589    3.2398727    95.078367   -171.28286   -481.59633   -185.93361 
      10   -927599.91    252.44265    94.899297    3.2400128    10.042037   -284.21732   -376.42281   -216.86603 
      20   -927600.67    252.44368    94.899019    3.2401406    61.466989   -230.06693   -403.85335   -190.81776 
      30   -927601.39    252.44473      94.8995    3.2402669    100.45198   -291.06946   -373.99934   -188.20561 
      40   -927602.03    252.44697    94.899026    3.2403912    70.243408   -210.79581   -376.30929   -172.28723 
      50   -927602.65    252.44748    94.899452    3.2405147    129.48776   -257.66293   -361.29843   -163.15787 
      60   -927603.18    252.44992    94.899023    3.2406242    75.284061    -183.8789   -350.49084   -153.02856 
      70    -927603.7    252.45057    94.899504     3.240733    113.79371   -239.06587   -323.51435    -149.5955 
      80   -927604.14    252.45258    94.899082    3.2408373    74.189739   -163.46093   -321.02581   -136.76566 
      90   -927604.56    252.45312    94.899515    3.2409402    109.44339   -210.22843   -297.60562   -132.79689 
     100   -927604.92    252.45493    94.899152    3.2410303    72.650522   -143.06327   -293.98722   -121.46666 
     102   -927604.92    252.45723    94.898021    3.2410304   -45.719234    18.855002   -310.72969   -112.53131 
Loop time of 7.98647 on 16 procs for 102 steps with 8280 atoms

99.4% CPU use with 16 MPI tasks x no OpenMP threads

Minimization stats:
  Stopping criterion = energy tolerance
  Energy initial, next-to-last, final = 
     -927599.072566262  -927604.919847452  -927604.919729572
  Force two-norm initial, final = 228.35560 63.800842
  Force max component initial, final = 193.88066 51.750782
  Final line search alpha, max atom move = 0.00065661968 0.033980582
  Iterations, force evaluations = 102 204

MPI task timing breakdown:
Section |  min time  |  avg time  |  max time  |%varavg| %total
---------------------------------------------------------------
Pair    | 5.9614     | 6.4071     | 6.7324     |  13.1 | 80.22
Neigh   | 0.48377    | 0.49919    | 0.5147     |   1.2 |  6.25
Comm    | 0.024092   | 0.34181    | 0.78093    |  56.2 |  4.28
Output  | 0.00041779 | 0.00045096 | 0.00054383 |   0.0 |  0.01
Modify  | 0.68386    | 0.69936    | 0.71442    |   1.0 |  8.76
Other   |            | 0.0386     |            |       |  0.48

Nlocal:        517.500 ave         525 max         510 min
Histogram: 8 0 0 0 0 0 0 0 0 8
Nghost:        849.250 ave         863 max         825 min
Histogram: 4 0 0 0 0 4 0 0 0 8
Neighs:        48525.0 ave       49147 max       47903 min
Histogram: 8 0 0 0 0 0 0 0 0 8

Total # of neighbors = 776400
Ave neighs/atom = 93.768116
Neighbor list builds = 192
Dangerous builds = 187
reset_timestep	0
fix 2 all neb 1.0 parallel ideal
unfix 1

min_style quickmin
variable u uloop 200

# region S_bottom_region block INF INF INF INF INF 10.5
# group S_bottom_group region S_bottom_region
# fix 1 S_bottom_group setforce 0.0 0.0 0.0

dump  1 all atom 10 dump.neb.$u
dump  1 all atom 10 dump.neb.7
neb	  1e-6 1e-6 10000 10000 100 final ./image-1.lmp
WARNING: Using 'neigh_modify every 1 delay 0 check yes' setting during minimization (../min.cpp:188)
Per MPI rank memory allocation (min/avg/max) = 28.28 | 28.57 | 28.69 Mbytes
Step PotEng Lx Ly Lz Pxx Pyy Pzz Press 
       0   -934758.66    252.45723    94.898021    3.2404368    319693.17    145435.07   -85939.696    126396.18 
      10   -937564.65    252.45723    94.898021    3.2404368    309076.01    133773.96   -82627.132    120074.28 
      20   -944808.54    252.45723    94.898021    3.2404368     273812.4    115507.85   -80814.235    102835.34 
      30   -952401.61    252.45723    94.898021    3.2404368    215427.79    114382.01   -87287.401    80840.802 
      40   -956915.49    252.45723    94.898021    3.2404368    153694.54    109644.52   -77845.987    61831.025 
      50   -958951.78    252.45723    94.898021    3.2404368    109107.02     99147.26   -49215.239    53013.014 
      60   -960150.32    252.45723    94.898021    3.2404368    84046.781    86207.867   -14181.232    52024.472 
      70   -961127.89    252.45723    94.898021    3.2404368    72253.035    70869.484    14782.828    52635.116 
      80   -961760.98    252.45723    94.898021    3.2404368    68382.332    67857.052    15869.169    50702.851 
      90   -962224.94    252.45723    94.898021    3.2404368    66907.539    67558.791    13673.329    49379.886 
     100    -962560.9    252.45723    94.898021    3.2404368    65378.855    67460.284    10930.554    47923.231 
     110   -962694.91    252.45723    94.898021    3.2404368    60715.067    67413.404    2200.8218    43443.098 
     120   -962771.49    252.45723    94.898021    3.2404368    60616.894    67388.501     2012.459    43339.285 
     130   -962835.12    252.45723    94.898021    3.2404368    60500.122    67370.721    1783.2567    43218.033 
     140    -962883.2    252.45723    94.898021    3.2404368    60268.291    67357.079    1352.1208    42992.497 
     150   -962909.21    252.45723    94.898021    3.2404368    59742.244    67350.882    878.71321     42657.28 
     160    -962921.3    252.45723    94.898021    3.2404368    59688.891    67345.465    281.94001    42438.765 
     170   -962929.87    252.45723    94.898021    3.2404368    59642.176    67342.738    196.16181    42393.692 
     180   -962935.95    252.45723    94.898021    3.2404368    59613.616    67340.935    143.18443    42365.912 
     190   -962940.33    252.45723    94.898021    3.2404368    59591.485    67339.736    101.64916     42344.29 
     200   -962943.46    252.45723    94.898021    3.2404368    59576.701    67338.872    73.864344    42329.812 
     210   -962945.76    252.45723    94.898021    3.2404368    59567.775    67338.154    57.501307    42321.143 
     220   -962947.44    252.45723    94.898021    3.2404368    59559.674     67337.82    41.650201    42313.048 
     230   -962948.62    252.45723    94.898021    3.2404368    59552.906    67337.397    29.769274    42306.691 
     240    -962949.4    252.45723    94.898021    3.2404368    59547.537    67337.202     19.44096    42301.393 
     250    -962949.9    252.45723    94.898021    3.2404368    59543.502    67337.008     12.27283    42297.594 
     260   -962950.21    252.45723    94.898021    3.2404368    59540.742    67336.918    7.1485597    42294.936 
     270   -962950.39    252.45723    94.898021    3.2404368     59539.05    67336.875    3.9030899    42293.276 
     280    -962950.5    252.45723    94.898021    3.2404368     59538.24    67336.899     2.115728    42292.418 
     290   -962950.57    252.45723    94.898021    3.2404368    59537.745    67336.823    1.5564879    42292.041 
     300   -962950.62    252.45723    94.898021    3.2404368    59537.483    67336.801     1.044083    42291.776 
     310   -962950.65    252.45723    94.898021    3.2404368    59537.319     67336.78   0.85723385    42291.652 
     320   -962950.68    252.45723    94.898021    3.2404368    59537.239     67336.79   0.59858505    42291.543 
     330    -962950.7    252.45723    94.898021    3.2404368    59537.184     67336.79   0.44944906    42291.475 
     340   -962950.72    252.45723    94.898021    3.2404368    59537.211    67336.852  -0.11139254    42291.317 
     350   -962950.73    252.45723    94.898021    3.2404368    59537.225    67336.888  -0.36573907    42291.249 
     360   -962950.74    252.45723    94.898021    3.2404368    59537.152    67336.836   0.10917978    42291.366 
     370   -962950.75    252.45723    94.898021    3.2404368    59537.025    67336.731   0.47788431    42291.411 
     380   -962950.76    252.45723    94.898021    3.2404368    59537.072    67336.829   0.21421847    42291.372 
     390   -962950.76    252.45723    94.898021    3.2404368    59536.964    67336.759    3.4384681    42292.387 
     400   -962950.76    252.45723    94.898021    3.2404368    59536.907    67336.733   0.50640868    42291.382 
     410   -962950.76    252.45723    94.898021    3.2404368     59536.81    67336.644   0.66485155    42291.373 
     420   -962950.76    252.45723    94.898021    3.2404368     59536.81    67336.651    0.8340916    42291.432 
     430   -962950.77    252.45723    94.898021    3.2404368    59536.898    67336.742   0.32420682    42291.321 
     440   -962950.77    252.45723    94.898021    3.2404368    59536.852    67336.696   0.16708754    42291.238 
     450   -962950.77    252.45723    94.898021    3.2404368    59536.902    67336.747   -0.1008484    42291.183 
     460   -962950.77    252.45723    94.898021    3.2404368     59536.95    67336.798  -0.43181312    42291.105 
     470   -962950.77    252.45723    94.898021    3.2404368    59537.033    67336.882  -0.77312134    42291.048 
     480   -962950.77    252.45723    94.898021    3.2404368    59536.872     67336.72  -0.14333579    42291.149 
     490   -962950.77    252.45723    94.898021    3.2404368    59536.992    67336.842  -0.45191901    42291.127 
     500   -962950.77    252.45723    94.898021    3.2404368    59537.011    67336.864  -0.67408049    42291.067 
     510   -962950.77    252.45723    94.898021    3.2404368    59536.933    67336.785  -0.31486487    42291.134 
     520   -962950.77    252.45723    94.898021    3.2404368    59536.826    67336.677   0.37751709    42291.293 
     530   -962950.77    252.45723    94.898021    3.2404368    59536.851    67336.703   0.24547352    42291.267 
     540   -962950.77    252.45723    94.898021    3.2404368    59536.851    67336.704   0.36123287    42291.305 
     550   -962950.77    252.45723    94.898021    3.2404368    59536.833    67336.685    0.3505925    42291.289 
     560   -962950.77    252.45723    94.898021    3.2404368    59536.902    67336.755  -0.16628264    42291.164 
     570   -962950.77    252.45723    94.898021    3.2404368    59536.955    67336.809  -0.35336903    42291.137 
     580   -962950.77    252.45723    94.898021    3.2404368    59536.957    67336.812  -0.27876252    42291.163 
     590   -962950.77    252.45723    94.898021    3.2404368    59536.896    67336.751  0.058187507    42291.235 
     600   -962950.77    252.45723    94.898021    3.2404368    59536.863    67336.717   0.25775848    42291.279 
     610   -962950.77    252.45723    94.898021    3.2404368    59536.994     67336.85  -0.26663066    42291.192 
     620   -962950.77    252.45723    94.898021    3.2404368    59536.951    67336.807   -0.5008954    42291.085 
     630   -962950.77    252.45723    94.898021    3.2404368    59536.846    67336.701   0.21644719    42291.255 
     640   -962950.77    252.45723    94.898021    3.2404368    59536.954    67336.811  -0.29102868    42291.158 
     650   -962950.77    252.45723    94.898021    3.2404368    59536.917    67336.773 -0.081764215    42291.203 
     660   -962950.77    252.45723    94.898021    3.2404368    59536.822    67336.678   0.29339036    42291.265 
     670   -962950.77    252.45723    94.898021    3.2404368    59536.929    67336.787   -0.2408268    42291.158 
     680   -962950.77    252.45723    94.898021    3.2404368     59536.89    67336.748   0.02632989    42291.221 
     690   -962950.77    252.45723    94.898021    3.2404368    59536.959    67336.817  -0.32147408    42291.151 
     700   -962950.77    252.45723    94.898021    3.2404368    59536.884    67336.741  0.099758614    42291.242 
     710   -962950.77    252.45723    94.898021    3.2404368    59536.832    67336.689   0.23008657     42291.25 
     720   -962950.77    252.45723    94.898021    3.2404368    59536.945    67336.803   -0.1470827      42291.2 
     730   -962950.77    252.45723    94.898021    3.2404368    59536.922    67336.781 -0.018551875    42291.228 
     740   -962950.77    252.45723    94.898021    3.2404368    59536.892     67336.75  0.084914928    42291.242 
     750   -962950.77    252.45723    94.898021    3.2404368    59536.932    67336.791  0.013794998    42291.246 
     760   -962950.77    252.45723    94.898021    3.2404368    59537.015    67336.875   -0.6257518    42291.088 
     770   -962950.77    252.45723    94.898021    3.2404368    59536.914    67336.773 -0.081947636    42291.202 
     780   -962950.77    252.45723    94.898021    3.2404368    59536.956    67336.816  -0.29926356    42291.158 
     790   -962950.77    252.45723    94.898021    3.2404368    59536.801    67336.659   0.62349535    42291.361 
     800   -962950.77    252.45723    94.898021    3.2404368    59536.868    67336.727  0.098162097    42291.231 
     810   -962950.77    252.45723    94.898021    3.2404368     59536.93    67336.791  -0.18679751    42291.178 
     820   -962950.77    252.45723    94.898021    3.2404368    59536.901    67336.762 -0.040087724    42291.208 
     830   -962950.77    252.45723    94.898021    3.2404368    59536.918    67336.778  -0.08414392    42291.204 
     840   -962950.77    252.45723    94.898021    3.2404368    59536.917    67336.778 -0.0017103011    42291.231 
     850   -962950.77    252.45723    94.898021    3.2404368    59536.938    67336.799 -0.057538672    42291.226 
     860   -962950.77    252.45723    94.898021    3.2404368    59536.962    67336.824   -0.3046515    42291.161 
     870   -962950.77    252.45723    94.898021    3.2404368    59536.916    67336.778 -0.077790838    42291.205 
     880   -962950.77    252.45723    94.898021    3.2404368    59537.016    67336.879  -0.65424965     42291.08 
     890   -962950.77    252.45723    94.898021    3.2404368    59536.825    67336.686   0.34329994    42291.285 
     900   -962950.77    252.45723    94.898021    3.2404368    59536.906    67336.768  0.038067941    42291.238 
     910   -962950.77    252.45723    94.898021    3.2404368    59536.829     67336.69   0.39061137    42291.303 
     920   -962950.77    252.45723    94.898021    3.2404368    59536.867    67336.729   0.27541628     42291.29 
     930   -962950.77    252.45723    94.898021    3.2404368    59536.926    67336.788  -0.16138836    42291.184 
     940   -962950.77    252.45723    94.898021    3.2404368    59536.963    67336.826  -0.24126117    42291.183 
     950   -962950.77    252.45723    94.898021    3.2404368    59536.937      67336.8  -0.10528271     42291.21 
     960   -962950.77    252.45723    94.898021    3.2404368    59536.915    67336.778 0.0018834016    42291.232 
     970   -962950.77    252.45723    94.898021    3.2404368    59536.913    67336.776   -0.1004707    42291.196 
     980   -962950.77    252.45723    94.898021    3.2404368    59536.902    67336.765  0.046296045    42291.238 
     990   -962950.77    252.45723    94.898021    3.2404368    59536.929    67336.792  -0.12347605    42291.199 
    1000   -962950.77    252.45723    94.898021    3.2404368    59536.942    67336.805  -0.26374882    42291.161 
    1010   -962950.77    252.45723    94.898021    3.2404368    59537.003    67336.867  -0.53865164     42291.11 
    1020   -962950.77    252.45723    94.898021    3.2404368    59536.909    67336.772 -0.0011874521    42291.227 
    1030   -962950.77    252.45723    94.898021    3.2404368    59536.937    67336.801  -0.22649898    42291.171 
    1040   -962950.77    252.45723    94.898021    3.2404368    59536.938    67336.802  -0.38071035     42291.12 
    1050   -962950.77    252.45723    94.898021    3.2404368     59536.96    67336.824   -0.3511632    42291.144 
    1060   -962950.77    252.45723    94.898021    3.2404368    59537.076    67336.941  -0.75817558    42291.086 
    1070   -962950.77    252.45723    94.898021    3.2404368    59536.959    67336.823 -0.058525399    42291.241 
    1080   -962950.77    252.45723    94.898021    3.2404368    59536.881    67336.745   0.16099159    42291.262 
    1090   -962950.77    252.45723    94.898021    3.2404368    59536.918    67336.781  -0.12430498    42291.192 
    1100   -962950.77    252.45723    94.898021    3.2404368    59537.023    67336.888  -0.68183548    42291.076 
    1110   -962950.77    252.45723    94.898021    3.2404368    59536.845    67336.708    0.3412263    42291.298 
    1120   -962950.77    252.45723    94.898021    3.2404368    59536.847    67336.711   0.26382398    42291.274 
    1130   -962950.77    252.45723    94.898021    3.2404368    59536.811    67336.674   0.66563129    42291.383 
    1140   -962950.77    252.45723    94.898021    3.2404368    59536.834    67336.697   0.45596177    42291.329 
    1150   -962950.77    252.45723    94.898021    3.2404368    59536.812    67336.675   0.56445811     42291.35 
    1160   -962950.77    252.45723    94.898021    3.2404368    59537.011    67336.876  -0.79331891    42291.031 
    1170   -962950.77    252.45723    94.898021    3.2404368    59536.861    67336.724   0.29221142    42291.292 
    1180   -962950.77    252.45723    94.898021    3.2404368    59536.867     67336.73   0.34092014    42291.313 
    1190   -962950.77    252.45723    94.898021    3.2404368    59536.962    67336.827  -0.36591052    42291.141 
    1200   -962950.77    252.45723    94.898021    3.2404368    59536.895     67336.76   0.05584791    42291.237 
    1210   -962950.77    252.45723    94.898021    3.2404368    59536.941    67336.806  -0.23463471    42291.171 
    1220   -962950.77    252.45723    94.898021    3.2404368    59536.908    67336.773 -0.062072638    42291.206 
    1230   -962950.77    252.45723    94.898021    3.2404368    59536.996    67336.862  -0.59389032    42291.088 
    1240   -962950.77    252.45723    94.898021    3.2404368    59536.866     67336.73   0.15503495     42291.25 
    1250   -962950.77    252.45723    94.898021    3.2404368    59536.861    67336.725   0.25903995    42291.282 
    1260   -962950.77    252.45723    94.898021    3.2404368    59536.873    67336.737  0.084801736    42291.232 
    1270   -962950.77    252.45723    94.898021    3.2404368    59536.895    67336.759  0.021445534    42291.225 
    1280   -962950.77    252.45723    94.898021    3.2404368    59536.789    67336.653   0.53557019    42291.326 
    1290   -962950.77    252.45723    94.898021    3.2404368     59536.93    67336.795  -0.28654428    42291.146 
    1300   -962950.77    252.45723    94.898021    3.2404368    59536.913    67336.778  -0.07470465    42291.205 
    1310   -962950.77    252.45723    94.898021    3.2404368    59536.915    67336.779 -0.073694054    42291.207 
    1320   -962950.77    252.45723    94.898021    3.2404368    59536.791    67336.655   0.56813194    42291.338 
    1330   -962950.77    252.45723    94.898021    3.2404368    59536.838    67336.703    0.2000014    42291.247 
    1340   -962950.77    252.45723    94.898021    3.2404368    59536.829    67336.693   0.36229187    42291.295 
    1350   -962950.77    252.45723    94.898021    3.2404368    59536.865    67336.729  0.076283322    42291.223 
    1360   -962950.77    252.45723    94.898021    3.2404368    59536.877    67336.741   0.30518835    42291.308 
    1370   -962950.77    252.45723    94.898021    3.2404368    59536.931    67336.797 -0.067420459     42291.22 
    1380   -962950.77    252.45723    94.898021    3.2404368    59536.921    67336.787  -0.12585666    42291.194 
    1390   -962950.77    252.45723    94.898021    3.2404368     59536.92    67336.785  -0.21791298    42291.162 
    1400   -962950.77    252.45723    94.898021    3.2404368    59536.932    67336.798   -0.2477302    42291.161 
    1410   -962950.77    252.45723    94.898021    3.2404368    59536.907    67336.772 -0.074579761    42291.201 
    1420   -962950.77    252.45723    94.898021    3.2404368    59536.857    67336.722   0.29831775    42291.293 
    1430   -962950.77    252.45723    94.898021    3.2404368    59536.938    67336.803  -0.06888563    42291.224 
    1440   -962950.77    252.45723    94.898021    3.2404368    59536.992    67336.858  -0.50628849    42291.115 
    1450   -962950.77    252.45723    94.898021    3.2404368    59536.999    67336.865  -0.64695734    42291.072 
    1460   -962950.77    252.45723    94.898021    3.2404368     59536.95    67336.816  -0.26407665    42291.167 
    1470   -962950.77    252.45723    94.898021    3.2404368    59536.831    67336.696   0.38536182    42291.304 
    1480   -962950.77    252.45723    94.898021    3.2404368    59536.876    67336.742   0.15395986    42291.257 
    1490   -962950.77    252.45723    94.898021    3.2404368    59536.917    67336.783  -0.15305597    42291.183 
    1500   -962950.77    252.45723    94.898021    3.2404368    59536.931    67336.797  -0.18246753    42291.182 
    1510   -962950.77    252.45723    94.898021    3.2404368    59536.831    67336.696   0.41801328    42291.315 
    1520   -962950.77    252.45723    94.898021    3.2404368    59536.874     67336.74   0.11192713    42291.242 
    1530   -962950.77    252.45723    94.898021    3.2404368    59536.937    67336.803  -0.20945006    42291.177 
    1540   -962950.77    252.45723    94.898021    3.2404368    59536.895    67336.761  0.043015943    42291.233 
    1550   -962950.77    252.45723    94.898021    3.2404368    59536.896    67336.762 -0.0078237602    42291.217 
    1560   -962950.77    252.45723    94.898021    3.2404368    59536.927    67336.793   -0.1915356    42291.176 
    1570   -962950.77    252.45723    94.898021    3.2404368    59536.932    67336.798  -0.17615643    42291.185 
    1580   -962950.77    252.45723    94.898021    3.2404368    59536.896    67336.762  0.031038851    42291.229 
    1590   -962950.77    252.45723    94.898021    3.2404368    59536.814     67336.68   0.49485549     42291.33 
    1600   -962950.77    252.45723    94.898021    3.2404368    59536.928    67336.795  -0.12902591    42291.198 
    1610   -962950.77    252.45723    94.898021    3.2404368    59536.826    67336.692    0.4873212    42291.335 
    1620   -962950.77    252.45723    94.898021    3.2404368    59536.891    67336.757  0.046421271    42291.232 
    1630   -962950.77    252.45723    94.898021    3.2404368    59536.838    67336.704   0.36264807    42291.301 
    1640   -962950.77    252.45723    94.898021    3.2404368    59536.797    67336.662   0.48953061    42291.316 
    1650   -962950.77    252.45723    94.898021    3.2404368    59536.981    67336.848  -0.36160554    42291.156 
    1660   -962950.78    252.45723    94.898021    3.2404368    59537.001    67336.869  -0.74060378    42291.043 
    1670   -962950.77    252.45723    94.898021    3.2404368    59536.846    67336.712    0.1948528    42291.251 
    1680   -962950.77    252.45723    94.898021    3.2404368    59536.778    67336.644   0.62694395     42291.35 
    1690   -962950.77    252.45723    94.898021    3.2404368    59536.932    67336.799  -0.10866287    42291.207 
    1700   -962950.77    252.45723    94.898021    3.2404368    59536.907    67336.774  0.039644217     42291.24 
    1710   -962950.77    252.45723    94.898021    3.2404368    59536.905    67336.772  0.011401931    42291.229 
    1720   -962950.77    252.45723    94.898021    3.2404368    59536.873    67336.739  0.098242533    42291.237 
    1730   -962950.77    252.45723    94.898021    3.2404368    59536.907    67336.774  -0.18517357    42291.166 
    1740   -962950.77    252.45723    94.898021    3.2404368    59536.882    67336.749  0.053568478    42291.228 
    1750   -962950.77    252.45723    94.898021    3.2404368    59536.892    67336.759 -0.0076126258    42291.215 
    1760   -962950.77    252.45723    94.898021    3.2404368    59536.912    67336.779 -0.060409218     42291.21 
    1770   -962950.77    252.45723    94.898021    3.2404368    59536.857    67336.723   0.33554773    42291.305 
    1780   -962950.77    252.45723    94.898021    3.2404368    59536.853     67336.72   0.16791435    42291.247 
    1790   -962950.77    252.45723    94.898021    3.2404368    59536.884    67336.751  0.075618373    42291.237 
    1800   -962950.77    252.45723    94.898021    3.2404368    59536.913    67336.781 -0.038707653    42291.218 
    1810   -962950.77    252.45723    94.898021    3.2404368    59536.938    67336.805  -0.18125185    42291.187 
    1820   -962950.77    252.45723    94.898021    3.2404368    59536.868    67336.735   0.16070814    42291.255 
    1830   -962950.77    252.45723    94.898021    3.2404368    59536.865    67336.732   0.14051276    42291.246 
    1840   -962950.77    252.45723    94.898021    3.2404368    59536.904    67336.771 -0.0031521847    42291.224 
    1850   -962950.77    252.45723    94.898021    3.2404368    59536.929    67336.797  -0.19675301    42291.177 
    1860   -962950.77    252.45723    94.898021    3.2404368    59536.928    67336.795  -0.07777778    42291.215 
    1870   -962950.77    252.45723    94.898021    3.2404368    59536.887    67336.754  0.070339656    42291.237 
    1880   -962950.77    252.45723    94.898021    3.2404368    59536.901    67336.768 -0.068716719      42291.2 
    1890   -962950.77    252.45723    94.898021    3.2404368    59536.926    67336.794  -0.20230695    42291.173 
    1900   -962950.77    252.45723    94.898021    3.2404368    59536.863     67336.73    0.3565408    42291.316 
    1910   -962950.77    252.45723    94.898021    3.2404368    59536.845    67336.713   0.30984093    42291.289 
    1920   -962950.77    252.45723    94.898021    3.2404368    59536.927    67336.795 -0.043045834    42291.227 
    1930   -962950.77    252.45723    94.898021    3.2404368    59536.937    67336.805  -0.15511516    42291.195 
    1940   -962950.77    252.45723    94.898021    3.2404368    59536.903    67336.771  0.012709937    42291.229 
    1950   -962950.77    252.45723    94.898021    3.2404368    59536.888    67336.756   0.11234395    42291.252 
    1960   -962950.77    252.45723    94.898021    3.2404368    59536.896    67336.764   0.02160226    42291.227 
    1970   -962950.77    252.45723    94.898021    3.2404368     59536.88    67336.748   0.11820742    42291.249 
    1980   -962950.78    252.45723    94.898021    3.2404368    59536.937    67336.806  -0.23238104     42291.17 
    1990   -962950.78    252.45723    94.898021    3.2404368    59536.954    67336.823  -0.43707345    42291.113 
    2000   -962950.78    252.45723    94.898021    3.2404368     59536.91    67336.778  -0.23380234    42291.151 
    2010   -962950.77    252.45723    94.898021    3.2404368    59536.829    67336.696   0.27222798    42291.266 
    2020   -962950.78    252.45723    94.898021    3.2404368      59536.9    67336.768  -0.21155121    42291.152 
    2030   -962950.78    252.45723    94.898021    3.2404368    59536.902     67336.77  -0.11473849    42291.186 
    2040   -962950.77    252.45723    94.898021    3.2404368     59536.92    67336.789  -0.11632129    42291.198 
    2050   -962950.77    252.45723    94.898021    3.2404368    59536.863    67336.731   0.12237155    42291.239 
    2060   -962950.77    252.45723    94.898021    3.2404368    59536.864    67336.731    0.1130934    42291.236 
    2070   -962950.77    252.45723    94.898021    3.2404368    59536.894    67336.763 -0.049354421    42291.203 
    2080   -962950.78    252.45723    94.898021    3.2404368        59537     67336.87  -0.73999626    42291.043 
    2090   -962950.78    252.45723    94.898021    3.2404368    59536.937    67336.806  -0.49019141    42291.084 
    2099   -962950.78    252.45723    94.898021    3.2404368     59536.89    67336.758 -0.059584694    42291.196 
Loop time of 87.619 on 16 procs for 2099 steps with 8280 atoms

99.5% CPU use with 16 MPI tasks x no OpenMP threads

Minimization stats:
  Stopping criterion = energy tolerance
  Energy initial, next-to-last, final = 
     -934758.658890423  -962950.774772634  -962950.775058435
  Force two-norm initial, final = 11619.104 0.15185034
  Force max component initial, final = 162.16161 0.0039468227
  Final line search alpha, max atom move = 0.0000000 0.0000000
  Iterations, force evaluations = 2099 2099

MPI task timing breakdown:
Section |  min time  |  avg time  |  max time  |%varavg| %total
---------------------------------------------------------------
Pair    | 69.514     | 75.349     | 78.821     |  42.4 | 86.00
Neigh   | 0          | 0          | 0          |   0.0 |  0.00
Comm    | 0.12836    | 3.634      | 9.3712     | 193.9 |  4.15
Output  | 0.22558    | 0.22766    | 0.22888    |   0.1 |  0.26
Modify  | 7.708      | 7.9713     | 8.241      |   5.9 |  9.10
Other   |            | 0.4367     |            |       |  0.50

Nlocal:        517.500 ave         525 max         510 min
Histogram: 8 0 0 0 0 0 0 0 0 8
Nghost:        860.500 ave         884 max         847 min
Histogram: 8 0 0 0 4 0 0 0 0 4
Neighs:        50054.5 ave       50731 max       49383 min
Histogram: 8 0 0 0 0 0 0 0 0 8

Total # of neighbors = 800872
Ave neighs/atom = 96.723671
Neighbor list builds = 0
Dangerous builds = 0
WARNING: Using 'neigh_modify every 1 delay 0 check yes' setting during minimization (../min.cpp:188)
Per MPI rank memory allocation (min/avg/max) = 28.29 | 28.57 | 28.69 Mbytes
Step PotEng Lx Ly Lz Pxx Pyy Pzz Press 
    2099   -962950.77    252.45723    94.898021    3.1701775    60856.353    68829.086   0.13260521    43228.524 
    2100   -962950.77    252.45723    94.898021    3.1701775    60856.352    68829.085    0.1355058    43228.524 
    2105   -962950.77    252.45723    94.898021    3.1701775    60856.331    68829.065   0.27734642    43228.558 
Loop time of 0.295596 on 16 procs for 6 steps with 8280 atoms

99.6% CPU use with 16 MPI tasks x no OpenMP threads

Minimization stats:
  Stopping criterion = energy tolerance
  Energy initial, next-to-last, final = 
     -962950.774772099  -962950.775085582  -962950.774558674
  Force two-norm initial, final = 0.15188556 0.15188018
  Force max component initial, final = 0.0039468839 0.0039441501
  Final line search alpha, max atom move = 0.0000000 0.0000000
  Iterations, force evaluations = 6 6

MPI task timing breakdown:
Section |  min time  |  avg time  |  max time  |%varavg| %total
---------------------------------------------------------------
Pair    | 0.23314    | 0.2503     | 0.26138    |   2.4 | 84.68
Neigh   | 0          | 0          | 0          |   0.0 |  0.00
Comm    | 0.00035862 | 0.011511   | 0.028571   |  11.2 |  3.89
Output  | 0.00071713 | 0.00072063 | 0.000723   |   0.0 |  0.24
Modify  | 0.029396   | 0.030012   | 0.030692   |   0.2 | 10.15
Other   |            | 0.003057   |            |       |  1.03

Nlocal:        517.500 ave         525 max         510 min
Histogram: 8 0 0 0 0 0 0 0 0 8
Nghost:        866.250 ave         886 max         847 min
Histogram: 8 0 0 0 0 0 0 0 0 8
Neighs:        50178.5 ave       50861 max       49496 min
Histogram: 8 0 0 0 0 0 0 0 0 8

Total # of neighbors = 802856
Ave neighs/atom = 96.963285
Neighbor list builds = 0
Dangerous builds = 0
Total wall time: 0:01:36
