LAMMPS (29 Sep 2021)
Processor partition = 4
# System Setup
units       real
dimension   3
boundary    p p s
atom_style  charge
neigh_modify  delay 5
atom_modify map array sort 0 0.0
newton      on

# Read Data
read_data ./image-0.lmp
Reading data file ...
  orthogonal box = (0.0000000 0.0000000 0.0000000) to (252.43931 94.898589 20.000000)
  8 by 2 by 1 MPI processor grid
  reading atoms ...
  8280 atoms
  read_data CPU = 0.031 seconds

# Force field setup
pair_style reaxff NULL
pair_coeff * * ./H-S-Mo.reaxff Mo S
mass 1 95.75
mass 2 32.06
# neigh_modify delay 10 check yes

# Molecular Static run setup
timestep 0.25  # metal 1=1ps; real 1=1fs

# Charge equllibrium step
fix 0 all qeq/reaxff 1 0.0 10.0 1.0e-6 reaxff  # Charge equillibrium at each step
thermo 10
# run 10000

# Minimization
fix 1 all box/relax x 0.0 y 0.0 vmax 0.01

thermo_style custom step pe lx ly lz pxx pyy pzz press
min_style cg
minimize 1e-10 1e-10 5000 10000

CITE-CITE-CITE-CITE-CITE-CITE-CITE-CITE-CITE-CITE-CITE-CITE-CITE

Your simulation uses code contributions which should be cited:

- pair reaxff command:

@Article{Aktulga12,
 author = {H. M. Aktulga, J. C. Fogarty, S. A. Pandit, A. Y. Grama},
 title = {Parallel reactive molecular dynamics: Numerical methods and algorithmic techniques},
 journal = {Parallel Computing},
 year =    2012,
 volume =  38,
 pages =   {245--259}
}

- fix qeq/reaxff command:

@Article{Aktulga12,
 author = {H. M. Aktulga, J. C. Fogarty, S. A. Pandit, A. Y. Grama},
 title = {Parallel reactive molecular dynamics: Numerical methods and algorithmic techniques},
 journal = {Parallel Computing},
 year =    2012,
 volume =  38,
 pages =   {245--259}
}

CITE-CITE-CITE-CITE-CITE-CITE-CITE-CITE-CITE-CITE-CITE-CITE-CITE

WARNING: Using 'neigh_modify every 1 delay 0 check yes' setting during minimization (../min.cpp:188)
Neighbor list info ...
  update every 1 steps, delay 0 steps, check yes
  max neighbors/atom: 2000, page size: 100000
  master list distance cutoff = 12
  ghost atom cutoff = 12
  binsize = 6, bins = 43 16 1
  2 neighbor lists, perpetual/occasional/extra = 2 0 0
  (1) pair reaxff, perpetual
      attributes: half, newton off, ghost
      pair build: half/bin/newtoff/ghost
      stencil: full/ghost/bin/3d
      bin: standard
  (2) fix qeq/reaxff, perpetual, copy from (1)
      attributes: half, newton off, ghost
      pair build: copy
      stencil: none
      bin: none
Per MPI rank memory allocation (min/avg/max) = 28.38 | 28.66 | 28.76 Mbytes
Step PotEng Lx Ly Lz Pxx Pyy Pzz Press 
       0   -927599.07    252.43931    94.898589    3.2398727    95.078367   -171.28286   -481.59633   -185.93361 
      10   -927599.91    252.44265    94.899297    3.2400128    10.042037   -284.21732   -376.42281   -216.86603 
      20   -927600.67    252.44368    94.899019    3.2401406    61.466989   -230.06693   -403.85335   -190.81776 
      30   -927601.39    252.44473      94.8995    3.2402669    100.45198   -291.06946   -373.99934   -188.20561 
      40   -927602.03    252.44697    94.899026    3.2403912    70.243408   -210.79581   -376.30929   -172.28723 
      50   -927602.65    252.44748    94.899452    3.2405147    129.48776   -257.66293   -361.29843   -163.15787 
      60   -927603.18    252.44992    94.899023    3.2406242    75.284061    -183.8789   -350.49084   -153.02856 
      70    -927603.7    252.45057    94.899504     3.240733    113.79371   -239.06587   -323.51435    -149.5955 
      80   -927604.14    252.45258    94.899082    3.2408373    74.189739   -163.46093   -321.02581   -136.76566 
      90   -927604.56    252.45312    94.899515    3.2409402    109.44339   -210.22843   -297.60562   -132.79689 
     100   -927604.92    252.45493    94.899152    3.2410303    72.650522   -143.06327   -293.98722   -121.46666 
     102   -927604.92    252.45723    94.898021    3.2410304   -45.719234    18.855002   -310.72969   -112.53131 
Loop time of 8.33616 on 16 procs for 102 steps with 8280 atoms

99.6% CPU use with 16 MPI tasks x no OpenMP threads

Minimization stats:
  Stopping criterion = energy tolerance
  Energy initial, next-to-last, final = 
     -927599.072566262  -927604.919847452  -927604.919729572
  Force two-norm initial, final = 228.35560 63.800842
  Force max component initial, final = 193.88066 51.750782
  Final line search alpha, max atom move = 0.00065661968 0.033980582
  Iterations, force evaluations = 102 204

MPI task timing breakdown:
Section |  min time  |  avg time  |  max time  |%varavg| %total
---------------------------------------------------------------
Pair    | 6.5888     | 6.8469     | 7.0381     |   5.5 | 82.14
Neigh   | 0.48779    | 0.5024     | 0.51751    |   1.2 |  6.03
Comm    | 0.092382   | 0.27485    | 0.50967    |  26.8 |  3.30
Output  | 0.00061829 | 0.0006465  | 0.00073591 |   0.0 |  0.01
Modify  | 0.66091    | 0.67554    | 0.69017    |   1.0 |  8.10
Other   |            | 0.0358     |            |       |  0.43

Nlocal:        517.500 ave         525 max         510 min
Histogram: 8 0 0 0 0 0 0 0 0 8
Nghost:        849.250 ave         863 max         825 min
Histogram: 4 0 0 0 0 4 0 0 0 8
Neighs:        48525.0 ave       49147 max       47903 min
Histogram: 8 0 0 0 0 0 0 0 0 8

Total # of neighbors = 776400
Ave neighs/atom = 93.768116
Neighbor list builds = 192
Dangerous builds = 187
reset_timestep	0
fix 2 all neb 1.0 parallel ideal
unfix 1

min_style quickmin
variable u uloop 200

# region S_bottom_region block INF INF INF INF INF 10.5
# group S_bottom_group region S_bottom_region
# fix 1 S_bottom_group setforce 0.0 0.0 0.0

dump  1 all atom 10 dump.neb.$u
dump  1 all atom 10 dump.neb.5
neb	  1e-6 1e-6 10000 10000 100 final ./image-1.lmp
WARNING: Using 'neigh_modify every 1 delay 0 check yes' setting during minimization (../min.cpp:188)
Per MPI rank memory allocation (min/avg/max) = 28.27 | 28.56 | 28.68 Mbytes
Step PotEng Lx Ly Lz Pxx Pyy Pzz Press 
       0   -815072.47    252.45723    94.898021    3.2406347    434381.87    83558.293    87629.604    201856.59 
      10   -818518.16    252.45723    94.898021    3.2406347    390161.96    46309.063    140882.67    192451.23 
      20   -827077.56    252.45723    94.898021    3.2406347    265173.97   -54056.987    292275.35    167797.44 
      30    -836885.5    252.45723    94.898021    3.2406347    130142.28    -143523.3    433087.74    139902.24 
      40   -847852.59    252.45723    94.898021    3.2406347    70628.523   -151878.01    440853.54    119868.02 
      50   -863466.55    252.45723    94.898021    3.2406347    75719.715   -92262.951    364473.55    115976.77 
      60      -875916    252.45723    94.898021    3.2406347       148172    172996.88    46348.751    122505.88 
      70   -880278.51    252.45723    94.898021    3.2406347    231606.46    226191.43   -35225.599    140857.43 
      80   -883476.53    252.45723    94.898021    3.2406347    220246.83    242828.81   -37171.657    141967.99 
      90   -885544.23    252.45723    94.898021    3.2406347     211490.3    250933.19   -31719.731    143567.92 
     100   -886717.82    252.45723    94.898021    3.2406347    210444.02    253927.27   -22111.812    147419.83 
     110   -887135.12    252.45723    94.898021    3.2406347    208896.11    245816.21   -27441.961    142423.45 
     120   -887367.17    252.45723    94.898021    3.2406347    209512.61    247195.54   -21650.624    145019.17 
     130   -887562.69    252.45723    94.898021    3.2406347    209789.56    248529.73    -16187.85    147377.15 
     140   -887723.52    252.45723    94.898021    3.2406347    209597.47    249641.28   -11545.367    149231.13 
     150   -887828.46    252.45723    94.898021    3.2406347    208541.76    249039.38   -9135.4672    149481.89 
     160      -887888    252.45723    94.898021    3.2406347    208049.52    249573.92   -7402.7074    150073.58 
     170   -887940.53    252.45723    94.898021    3.2406347    207440.62    250022.19   -6001.1636    150487.22 
     180   -887987.31    252.45723    94.898021    3.2406347     206801.4    250482.67   -4852.5754     150810.5 
     190   -888030.61    252.45723    94.898021    3.2406347    206239.94    250967.17   -3916.2222    151096.96 
     200   -888071.92    252.45723    94.898021    3.2406347    205720.91    251497.03   -3155.9121    151354.01 
     210   -888113.58    252.45723    94.898021    3.2406347    205199.83    252109.88   -2506.3895    151601.11 
     220   -888156.49    252.45723    94.898021    3.2406347    204638.13    252740.57   -1960.2248    151806.16 
     230   -888200.05    252.45723    94.898021    3.2406347    204064.31    253390.16   -1515.2153    151979.75 
     240   -888243.41    252.45723    94.898021    3.2406347     203497.3    254021.02   -1170.6243     152115.9 
     250   -888285.37    252.45723    94.898021    3.2406347    202969.71    254607.64   -918.00825    152219.78 
     260   -888324.43    252.45723    94.898021    3.2406347    202558.38    255131.68   -750.82462    152313.08 
     270    -888359.1    252.45723    94.898021    3.2406347    202236.14    255554.93   -650.99793    152380.02 
     280   -888388.95    252.45723    94.898021    3.2406347    202011.59    255936.56   -589.95302    152452.73 
     290    -888415.8    252.45723    94.898021    3.2406347    201948.18    256347.18   -549.59125    152581.92 
     300    -888440.7    252.45723    94.898021    3.2406347     201790.4    256680.67   -519.40643    152650.55 
     310   -888464.27    252.45723    94.898021    3.2406347    201679.99    257004.93    -492.4603    152730.82 
     320   -888487.45    252.45723    94.898021    3.2406347    201625.13    257339.45   -470.82014    152831.26 
     330   -888511.61    252.45723    94.898021    3.2406347    201631.62    257720.35   -450.92242    152967.01 
     340   -888538.79    252.45723    94.898021    3.2406347    201724.39    258195.84   -431.00086    153163.07 
     350   -888571.92    252.45723    94.898021    3.2406347       201935    258830.95   -406.86294    153453.03 
     360   -888615.87    252.45723    94.898021    3.2406347    202375.87    259764.82   -365.45638    153925.08 
     370   -888683.39    252.45723    94.898021    3.2406347    203340.73    261460.84   -220.01472    154860.52 
     380      -888847    252.45723    94.898021    3.2406347    205895.96     266149.3    839.68903    157628.31 
     390   -889172.76    252.45723    94.898021    3.2406347    205304.76    265581.07    556.90092    157147.58 
     400   -889297.17    252.45723    94.898021    3.2406347    204422.99    262844.03   -49.864234    155739.05 
     410   -889436.22    252.45723    94.898021    3.2406347    205976.26    264367.49   -160.09947    156727.88 
     420   -889670.61    252.45723    94.898021    3.2406347    207633.02    265862.12   -458.37556    157678.92 
     430   -889976.06    252.45723    94.898021    3.2406347    207945.89    266380.72    -478.1773    157949.48 
     440   -890285.54    252.45723    94.898021    3.2406347    207190.09       266272   -103.24241    157786.28 
     450   -890585.41    252.45723    94.898021    3.2406347    206089.53    265896.81    308.62403    157431.65 
     460   -890887.94    252.45723    94.898021    3.2406347    205349.04    265752.19     611.1875    157237.47 
     470   -891191.41    252.45723    94.898021    3.2406347    204408.73    265266.73    892.61018    156856.02 
     480   -891496.82    252.45723    94.898021    3.2406347    203446.65    264650.95    1043.6489    156380.41 
     490   -891795.59    252.45723    94.898021    3.2406347    202732.48     264080.2     1170.474    155994.39 
     500   -892101.85    252.45723    94.898021    3.2406347    202158.64    263441.72    1211.6668    155604.01 
     510   -892427.86    252.45723    94.898021    3.2406347     201207.2    262461.89    1193.2051     154954.1 
     520   -892723.75    252.45723    94.898021    3.2406347    199636.26    261092.95    1412.6496    154047.29 
     530   -892997.85    252.45723    94.898021    3.2406347    198273.09     259900.1    1438.9206    153204.04 
     540   -893239.41    252.45723    94.898021    3.2406347    196563.77    258580.91    1532.1126     152225.6 
     550   -893433.72    252.45723    94.898021    3.2406347    194675.67    257094.46    1753.8072    151174.65 
     560    -893592.6    252.45723    94.898021    3.2406347    193152.57    255871.33    1943.5655    150322.49 
     570   -893725.42    252.45723    94.898021    3.2406347    191623.62    254483.88    2109.5833     149405.7 
     580    -893839.2    252.45723    94.898021    3.2406347    190422.14    253301.03    2283.6585    148668.94 
     590   -893952.55    252.45723    94.898021    3.2406347    189402.81    252204.75    2432.5929    148013.38 
     600   -894062.16    252.45723    94.898021    3.2406347    188395.94    251127.67    2552.5841    147358.73 
     610   -894181.28    252.45723    94.898021    3.2406347    187540.11    250122.56    2561.7236    146741.47 
     620   -894293.37    252.45723    94.898021    3.2406347       186580    249063.76      2525.42    146056.39 
     630   -894400.52    252.45723    94.898021    3.2406347    185914.67    248255.35    2440.1831    145536.73 
     640   -894507.37    252.45723    94.898021    3.2406347    185316.99    247509.26    2257.1529     145027.8 
     650   -894609.53    252.45723    94.898021    3.2406347    185038.85     247039.2    2055.4777    144711.18 
     660   -894721.42    252.45723    94.898021    3.2406347    185272.36    247020.43    1745.9699    144679.59 
     670   -894874.19    252.45723    94.898021    3.2406347    185983.64    247446.25    1290.3735    144906.75 
     680    -895067.2    252.45723    94.898021    3.2406347    186179.08    247453.25    1008.6697    144880.33 
     690   -895257.76    252.45723    94.898021    3.2406347    185666.16    247134.85    1131.9583    144644.32 
     700    -895416.1    252.45723    94.898021    3.2406347    184668.37    246329.96    1548.5799    144182.31 
     710   -895563.12    252.45723    94.898021    3.2406347    184175.43    245986.74    1639.4136    143933.86 
     720   -895703.01    252.45723    94.898021    3.2406347    183654.18    245418.13     1703.658    143591.99 
     730    -895837.1    252.45723    94.898021    3.2406347    183267.76     244931.3    1776.3593    143325.14 
     740   -895969.33    252.45723    94.898021    3.2406347    182842.67    244429.67    1843.1353    143038.49 
     750   -896090.24    252.45723    94.898021    3.2406347    182291.69    243658.91    1874.2554    142608.28 
     760   -896200.09    252.45723    94.898021    3.2406347    182240.51    243556.41    1651.2506    142482.72 
     770   -896319.38    252.45723    94.898021    3.2406347    182191.14    243425.48    1328.3839       142315 
     780   -896421.66    252.45723    94.898021    3.2406347    181928.49    243113.82    1257.1051     142099.8 
     790    -896513.2    252.45723    94.898021    3.2406347    181748.17    242866.32    1265.4477    141959.98 
     800   -896596.31    252.45723    94.898021    3.2406347    181605.39    242627.32    1265.6439    141832.79 
     810   -896678.25    252.45723    94.898021    3.2406347    181714.69    242590.99    1215.2542    141840.31 
     820   -896774.77    252.45723    94.898021    3.2406347    181966.72    242722.23    1079.5855    141922.85 
     830   -896872.75    252.45723    94.898021    3.2406347    181694.43    242432.81    1109.8224    141745.69 
     840   -896949.11    252.45723    94.898021    3.2406347    181154.94    241965.53    1343.0541    141487.84 
     850   -897014.57    252.45723    94.898021    3.2406347    180741.26    241659.45    1508.3331    141303.02 
     860   -897080.36    252.45723    94.898021    3.2406347    180447.91    241452.05    1575.8431     141158.6 
     870   -897144.43    252.45723    94.898021    3.2406347    180019.29    241143.05    1579.5027    140913.95 
     880   -897202.23    252.45723    94.898021    3.2406347    179613.95    240812.09    1621.0081    140682.35 
     890   -897254.26    252.45723    94.898021    3.2406347    179252.99    240500.17    1627.7703    140460.31 
     900    -897304.5    252.45723    94.898021    3.2406347    178981.64    240258.05    1630.4956    140290.06 
     910   -897350.96    252.45723    94.898021    3.2406347    178670.38    240031.33    1647.5332    140116.42 
     920   -897394.04    252.45723    94.898021    3.2406347    178367.51    239826.26    1662.6584    139952.14 
     930   -897433.96    252.45723    94.898021    3.2406347    178097.05     239656.9    1654.2352    139802.73 
     940   -897472.88    252.45723    94.898021    3.2406347    177913.19    239546.41    1623.6903    139694.43 
     950   -897511.38    252.45723    94.898021    3.2406347    177729.77    239433.82    1586.0387    139583.21 
     960   -897547.75    252.45723    94.898021    3.2406347     177510.9    239307.01    1567.7432    139461.88 
     970   -897582.31    252.45723    94.898021    3.2406347    177312.47     239208.1     1558.027    139359.53 
     980   -897615.75    252.45723    94.898021    3.2406347    177100.09     239095.5    1557.2855    139250.96 
     990   -897648.07    252.45723    94.898021    3.2406347    176903.94    238993.49    1556.9393    139151.45 
    1000   -897680.41    252.45723    94.898021    3.2406347    176698.01    238886.39    1544.1159    139042.84 
    1010   -897710.39    252.45723    94.898021    3.2406347    176421.74    238743.35    1568.1917    138911.09 
    1020      -897737    252.45723    94.898021    3.2406347     176152.1    238617.55    1611.5906    138793.75 
    1030   -897763.87    252.45723    94.898021    3.2406347    175897.73    238504.53    1626.2068    138676.15 
    1040   -897790.16    252.45723    94.898021    3.2406347    175622.04    238394.83    1643.5351    138553.47 
    1050   -897815.54    252.45723    94.898021    3.2406347    175358.56       238292    1669.2841    138439.95 
    1060   -897841.81    252.45723    94.898021    3.2406347    175155.02    238214.53    1667.3877    138345.64 
    1070   -897870.94    252.45723    94.898021    3.2406347    174963.55    238135.31    1638.4007    138245.76 
    1080   -897899.17    252.45723    94.898021    3.2406347    174697.29    238025.25    1633.2405    138118.59 
    1090   -897924.03    252.45723    94.898021    3.2406347    174380.35    237890.84     1668.428    137979.87 
    1100   -897947.25    252.45723    94.898021    3.2406347    174099.49    237778.93     1705.583    137861.33 
    1110   -897968.55    252.45723    94.898021    3.2406347    173791.63    237650.67     1729.796    137724.03 
    1120   -897988.11    252.45723    94.898021    3.2406347    173522.23     237536.8    1755.4961    137604.84 
    1130   -898007.77    252.45723    94.898021    3.2406347    173293.19    237440.55    1762.6989    137498.81 
    1140   -898028.31    252.45723    94.898021    3.2406347    173074.45    237346.52     1744.394    137388.46 
    1150   -898048.85    252.45723    94.898021    3.2406347    172824.51    237243.83    1738.7727    137269.04 
    1160   -898066.56    252.45723    94.898021    3.2406347    172528.56    237127.66    1777.3581    137144.52 
    1170   -898081.61    252.45723    94.898021    3.2406347    172238.49    237013.69    1820.1733    137024.12 
    1180   -898096.04    252.45723    94.898021    3.2406347    171997.62    236919.54    1841.3153    136919.49 
    1190   -898111.08    252.45723    94.898021    3.2406347    171795.19    236837.76    1840.8639    136824.61 
    1200   -898126.72    252.45723    94.898021    3.2406347    171597.38     236759.3    1831.9961    136729.56 
    1210    -898141.6    252.45723    94.898021    3.2406347     171367.5     236669.9    1836.1105     136624.5 
    1220   -898155.36    252.45723    94.898021    3.2406347    171142.69     236582.5    1845.7788    136523.66 
    1230   -898169.25    252.45723    94.898021    3.2406347    170952.15    236505.49    1845.3249    136434.32 
    1240   -898183.83    252.45723    94.898021    3.2406347     170797.9    236451.65    1831.0111    136360.19 
    1250   -898200.71    252.45723    94.898021    3.2406347    170650.06    236394.76    1803.2036    136282.67 
    1260    -898218.4    252.45723    94.898021    3.2406347    170462.06     236331.4    1785.5932    136193.02 
    1270   -898235.25    252.45723    94.898021    3.2406347    170226.01     236252.4    1804.5116    136094.31 
    1280   -898251.91    252.45723    94.898021    3.2406347    169985.35    236161.11    1825.6438     135990.7 
    1290   -898267.97    252.45723    94.898021    3.2406347    169719.49    236060.02    1848.6991    135876.07 
    1300   -898282.06    252.45723    94.898021    3.2406347    169436.69    235950.06    1887.0783    135757.95 
    1310    -898295.4    252.45723    94.898021    3.2406347    169190.18    235849.16    1917.3192    135652.22 
    1320   -898309.42    252.45723    94.898021    3.2406347    168978.11    235758.63    1927.7561    135554.83 
    1330   -898324.13    252.45723    94.898021    3.2406347    168794.22    235683.96    1935.2334    135471.14 
    1340   -898339.95    252.45723    94.898021    3.2406347    168609.12    235609.98    1944.5675    135387.89 
    1350    -898356.7    252.45723    94.898021    3.2406347     168450.2    235554.39    1950.1251    135318.24 
    1360    -898376.3    252.45723    94.898021    3.2406347    168337.45    235525.58    1944.4919    135269.17 
    1370   -898400.17    252.45723    94.898021    3.2406347    168214.62    235491.39    1913.3115    135206.44 
    1380    -898425.6    252.45723    94.898021    3.2406347    168036.08     235438.6    1914.5056    135129.73 
    1390   -898450.47    252.45723    94.898021    3.2406347    167799.39    235358.39    1950.5369    135036.11 
    1400   -898475.57    252.45723    94.898021    3.2406347    167568.33     235296.2    1976.0255    134946.85 
    1410   -898501.64    252.45723    94.898021    3.2406347    167326.46    235240.67     1997.786    134854.97 
    1420   -898525.99    252.45723    94.898021    3.2406347    167050.34    235182.81    2016.9134    134750.02 
    1430   -898548.28    252.45723    94.898021    3.2406347    166800.92    235166.73    2025.4262    134664.36 
    1440   -898568.93    252.45723    94.898021    3.2406347    166568.37    235163.71    2023.1051    134585.06 
    1450   -898589.26    252.45723    94.898021    3.2406347    166392.14     235195.2    2004.0951    134530.48 
    1460   -898610.92    252.45723    94.898021    3.2406347     166223.4    235209.08    1966.7704    134466.42 
    1470   -898630.93    252.45723    94.898021    3.2406347    166015.66    235192.68    1956.7937    134388.38 
    1480   -898648.76    252.45723    94.898021    3.2406347    165815.93    235173.51    1966.7989    134318.74 
    1490   -898665.93    252.45723    94.898021    3.2406347    165653.17    235164.98    1965.0064    134261.05 
    1500   -898682.73    252.45723    94.898021    3.2406347    165500.66     235159.7    1956.1571    134205.51 
    1510   -898698.29    252.45723    94.898021    3.2406347    165348.77    235156.01    1951.2263       134152 
    1520   -898713.34    252.45723    94.898021    3.2406347    165203.85    235147.58    1947.1943    134099.54 
    1530   -898729.06    252.45723    94.898021    3.2406347    165070.54     235139.3    1942.1255    134050.66 
    1540   -898745.37    252.45723    94.898021    3.2406347    164938.18    235139.19    1935.1913    134004.19 
    1550   -898762.81    252.45723    94.898021    3.2406347    164788.85    235137.42    1936.5756    133954.28 
    1560   -898781.07    252.45723    94.898021    3.2406347    164594.71    235120.43    1951.7395    133888.96 
    1570   -898798.45    252.45723    94.898021    3.2406347    164341.66    235078.18    1987.2939    133802.38 
    1580   -898814.31    252.45723    94.898021    3.2406347    164094.82    235046.33    2033.1894    133724.78 
    1590   -898830.58    252.45723    94.898021    3.2406347    163883.81    235036.69    2050.9488    133657.15 
    1600   -898848.65    252.45723    94.898021    3.2406347    163699.16    235039.79    2043.7369    133594.23 
    1610   -898866.87    252.45723    94.898021    3.2406347    163506.23    235051.03    2016.2213    133524.49 
    1620   -898884.34    252.45723    94.898021    3.2406347    163325.21    235071.89    1983.9324    133460.34 
    1630   -898901.49    252.45723    94.898021    3.2406347    163165.63    235100.36    1943.3093     133403.1 
    1640   -898918.06    252.45723    94.898021    3.2406347     163010.3    235121.27    1901.2432    133344.27 
    1650   -898933.66    252.45723    94.898021    3.2406347    162882.18    235146.08    1861.4245    133296.56 
    1660   -898948.78    252.45723    94.898021    3.2406347       162793    235183.92    1823.1882     133266.7 
    1670   -898964.84    252.45723    94.898021    3.2406347    162694.95    235200.16    1782.7906    133225.97 
    1680   -898980.62    252.45723    94.898021    3.2406347    162573.66    235199.39    1748.9516       133174 
    1690   -898994.88    252.45723    94.898021    3.2406347    162424.61    235165.89    1741.2712    133110.59 
    1700   -899008.36    252.45723    94.898021    3.2406347    162307.45    235140.46    1748.3293    133065.41 
    1710   -899022.61    252.45723    94.898021    3.2406347     162203.7    235111.79    1749.0044     133021.5 
    1720    -899035.5    252.45723    94.898021    3.5911149    146267.34    212126.42      1583.17    119992.31 
    1730   -899047.98    252.45723    94.898021    3.5911149    146200.71    212103.94    1584.2173    119962.95 
    1740   -899061.03    252.45723    94.898021    3.5911149    146165.72    212101.82    1561.7804    119943.11 
    1750   -899075.52    252.45723    94.898021    3.5911149    146144.47     212112.7     1535.509    119930.89 
    1760   -899090.61    252.45723    94.898021    3.5911149    146100.13    212105.93    1503.1299    119903.06 
    1770   -899104.74    252.45723    94.898021    3.5911149     146064.1     212097.6    1497.3383    119886.35 
    1780   -899120.74    252.45723    94.898021    3.5911149    146044.74    212103.85    1475.3615    119874.65 
    1790   -899137.67    252.45723    94.898021    3.5911149    145963.85    212075.41    1474.8632    119838.04 
    1800    -899151.3    252.45723    94.898021    3.5911149    145826.38    212005.62    1518.8536    119783.62 
    1810   -899161.72    252.45723    94.898021    3.5911149    145676.56    211927.03    1574.6057    119726.06 
    1820   -899170.36    252.45723    94.898021    3.5911149    145567.86    211869.23     1623.088    119686.73 
    1830   -899179.09    252.45723    94.898021    3.5911149    145482.74    211826.42    1641.2143    119650.13 
    1840   -899188.42    252.45723    94.898021    3.5911149    145405.19    211781.63    1653.5703    119613.46 
    1850   -899197.28    252.45723    94.898021    3.5911149       145310    211726.83    1665.2895    119567.37 
    1860   -899205.49    252.45723    94.898021    3.5911149    145232.71    211683.82    1676.6464    119531.06 
    1870   -899214.51    252.45723    94.898021    3.5911149    145182.49    211652.53    1681.1815     119505.4 
    1880   -899225.27    252.45723    94.898021    3.5911149    145154.69    211630.59    1672.9854    119486.09 
    1890    -899237.5    252.45723    94.898021    3.5911149    145115.35    211605.66    1663.5256    119461.51 
    1900   -899249.29    252.45723    94.898021    3.5911149    145036.18    211560.27    1667.4345    119421.29 
    1910   -899260.38    252.45723    94.898021    3.5911149    144961.85    211523.02    1683.5642    119389.48 
    1920   -899271.59    252.45723    94.898021    3.5911149    144903.19    211487.88    1682.3369     119357.8 
    1930    -899282.2    252.45723    94.898021    3.5911149    144846.46     211458.7    1676.5508    119327.24 
    1940   -899292.86    252.45723    94.898021    3.5911149     144815.1    211441.06    1668.2466    119308.14 
    1950   -899304.46    252.45723    94.898021    3.5911149    144797.06    211424.88    1644.6049    119288.85 
    1960   -899316.51    252.45723    94.898021    3.5911149    144767.58    211407.86    1626.8904    119267.44 
    1970   -899328.17    252.45723    94.898021    3.5911149    144717.66    211380.37    1611.2127    119236.42 
    1980      -899340    252.45723    94.898021    3.5911149    144674.95    211357.96     1610.147    119214.35 
    1990   -899352.36    252.45723    94.898021    3.5911149    144617.29    211328.37    1607.6079    119184.42 
    2000   -899362.86    252.45723    94.898021    3.5911149    144523.51    211278.42    1625.8436    119142.59 
    2010   -899371.74    252.45723    94.898021    3.5911149    144438.78    211231.31    1661.2531    119110.45 
    2020   -899381.11    252.45723    94.898021    3.5911149    144386.14    211196.13    1679.7522    119087.34 
    2030   -899391.45    252.45723    94.898021    3.5911149    144345.83    211168.39    1685.4043    119066.54 
    2040    -899403.1    252.45723    94.898021    3.5911149    144283.38    211125.07    1691.2641    119033.24 
    2050   -899414.23    252.45723    94.898021    3.5911149    144188.93    211063.15     1713.734     118988.6 
    2060   -899425.25    252.45723    94.898021    3.5911149    144109.31    211003.96    1744.4394    118952.57 
    2070   -899437.19    252.45723    94.898021    3.5911149       144022    210940.86    1758.1421       118907 
    2080   -899447.99    252.45723    94.898021    3.5911149    143891.51    210860.29    1776.2295    118842.67 
    2090   -899456.46    252.45723    94.898021    3.5911149     143748.8    210776.65    1809.2429    118778.23 
    2099   -899463.39    252.45723    94.898021    3.5911149    143635.24    210707.73    1830.8177     118724.6 
Loop time of 87.619 on 16 procs for 2099 steps with 8280 atoms

99.7% CPU use with 16 MPI tasks x no OpenMP threads

Minimization stats:
  Stopping criterion = energy tolerance
  Energy initial, next-to-last, final = 
     -815072.469662824  -899462.765477545  -899463.391599215
  Force two-norm initial, final = 12928.895 111.25424
  Force max component initial, final = 194.15584 18.559571
  Final line search alpha, max atom move = 0.0000000 0.0000000
  Iterations, force evaluations = 2099 2099

MPI task timing breakdown:
Section |  min time  |  avg time  |  max time  |%varavg| %total
---------------------------------------------------------------
Pair    | 63.265     | 67.632     | 72.504     |  33.2 | 77.19
Neigh   | 0.0026555  | 0.0027703  | 0.0028245  |   0.1 |  0.00
Comm    | 0.1774     | 3.6674     | 7.2268     | 134.9 |  4.19
Output  | 0.23072    | 0.23114    | 0.2325     |   0.1 |  0.26
Modify  | 14.278     | 15.676     | 16.903     |  28.8 | 17.89
Other   |            | 0.4097     |            |       |  0.47

Nlocal:        517.500 ave         525 max         510 min
Histogram: 8 0 0 0 0 0 0 0 0 8
Nghost:        862.750 ave         886 max         822 min
Histogram: 2 0 0 3 3 0 0 0 0 8
Neighs:        49527.6 ave       50658 max       48742 min
Histogram: 4 4 0 0 0 0 6 0 0 2

Total # of neighbors = 792442
Ave neighs/atom = 95.705556
Neighbor list builds = 1
Dangerous builds = 0
WARNING: Using 'neigh_modify every 1 delay 0 check yes' setting during minimization (../min.cpp:188)
Per MPI rank memory allocation (min/avg/max) = 28.28 | 28.57 | 28.68 Mbytes
Step PotEng Lx Ly Lz Pxx Pyy Pzz Press 
    2099   -899463.39    252.45723    94.898021    3.6069001    143006.64    209785.59    1822.8031    118205.01 
    2100   -899463.39    252.45723    94.898021    3.6069001    142987.43    209758.97    1809.0789    118185.16 
    2105   -899463.53    252.45723    94.898021    3.6069001    142985.49    209757.89     1809.263    118184.21 
Loop time of 0.29561 on 16 procs for 6 steps with 8280 atoms

99.7% CPU use with 16 MPI tasks x no OpenMP threads

Minimization stats:
  Stopping criterion = energy tolerance
  Energy initial, next-to-last, final = 
     -899463.391614604  -899463.483195445  -899463.529234278
  Force two-norm initial, final = 111.25359 111.22123
  Force max component initial, final = 18.561158 18.550975
  Final line search alpha, max atom move = 0.0000000 0.0000000
  Iterations, force evaluations = 6 6

MPI task timing breakdown:
Section |  min time  |  avg time  |  max time  |%varavg| %total
---------------------------------------------------------------
Pair    | 0.20575    | 0.22345    | 0.24292    |   2.3 | 75.59
Neigh   | 0          | 0          | 0          |   0.0 |  0.00
Comm    | 0.00032642 | 0.01391    | 0.026553   |   8.4 |  4.71
Output  | 0.00073336 | 0.00074281 | 0.00074908 |   0.0 |  0.25
Modify  | 0.048632   | 0.054547   | 0.059952   |   2.1 | 18.45
Other   |            | 0.002962   |            |       |  1.00

Nlocal:        517.500 ave         525 max         510 min
Histogram: 8 0 0 0 0 0 0 0 0 8
Nghost:        863.062 ave         886 max         825 min
Histogram: 2 0 0 6 0 0 0 0 0 8
Neighs:        49514.9 ave       50641 max       48742 min
Histogram: 6 2 0 0 0 0 6 0 0 2

Total # of neighbors = 792238
Ave neighs/atom = 95.680918
Neighbor list builds = 0
Dangerous builds = 0
Total wall time: 0:01:36
