LAMMPS (29 Sep 2021)
Processor partition = 5
Reading data file ...
  orthogonal box = (0.0000000 0.0000000 0.0000000) to (252.43931 94.898589 20.000000)
  8 by 2 by 1 MPI processor grid
  reading atoms ...
  8280 atoms
  read_data CPU = 0.086 seconds

CITE-CITE-CITE-CITE-CITE-CITE-CITE-CITE-CITE-CITE-CITE-CITE-CITE

Your simulation uses code contributions which should be cited:
- pair reaxff command:
- fix qeq/reaxff command:
The log file lists these citations in BibTeX format.

CITE-CITE-CITE-CITE-CITE-CITE-CITE-CITE-CITE-CITE-CITE-CITE-CITE

WARNING: Using 'neigh_modify every 1 delay 0 check yes' setting during minimization (../min.cpp:188)
Neighbor list info ...
  update every 1 steps, delay 0 steps, check yes
  max neighbors/atom: 2000, page size: 100000
  master list distance cutoff = 12
  ghost atom cutoff = 12
  binsize = 6, bins = 43 16 1
  2 neighbor lists, perpetual/occasional/extra = 2 0 0
  (1) pair reaxff, perpetual
      attributes: half, newton off, ghost
      pair build: half/bin/newtoff/ghost
      stencil: full/ghost/bin/3d
      bin: standard
  (2) fix qeq/reaxff, perpetual, copy from (1)
      attributes: half, newton off, ghost
      pair build: copy
      stencil: none
      bin: none
Setting up cg style minimization ...
  Unit style    : real
  Current step  : 0
WARNING: Energy due to 3 extra global DOFs will be included in minimizer energies
Per MPI rank memory allocation (min/avg/max) = 28.38 | 28.66 | 28.76 Mbytes
Step PotEng Lx Ly Lz Pxx Pyy Pzz Press 
       0   -927599.07    252.43931    94.898589    3.2398727    95.078367   -171.28286   -481.59633   -185.93361 
      10   -927599.91    252.44265    94.899297    3.2400128    10.042037   -284.21732   -376.42281   -216.86603 
      20   -927600.67    252.44368    94.899019    3.2401406    61.466989   -230.06693   -403.85335   -190.81776 
      30   -927601.39    252.44473      94.8995    3.2402669    100.45198   -291.06946   -373.99934   -188.20561 
      40   -927602.03    252.44697    94.899026    3.2403912    70.243408   -210.79581   -376.30929   -172.28723 
      50   -927602.65    252.44748    94.899452    3.2405147    129.48776   -257.66293   -361.29843   -163.15787 
      60   -927603.18    252.44992    94.899023    3.2406242    75.284061    -183.8789   -350.49084   -153.02856 
      70    -927603.7    252.45057    94.899504     3.240733    113.79371   -239.06587   -323.51435    -149.5955 
      80   -927604.14    252.45258    94.899082    3.2408373    74.189739   -163.46093   -321.02581   -136.76566 
      90   -927604.56    252.45312    94.899515    3.2409402    109.44339   -210.22843   -297.60562   -132.79689 
     100   -927604.92    252.45493    94.899152    3.2410303    72.650522   -143.06327   -293.98722   -121.46666 
     102   -927604.92    252.45723    94.898021    3.2410304   -45.719234    18.855002   -310.72969   -112.53131 
Loop time of 7.97146 on 16 procs for 102 steps with 8280 atoms

99.6% CPU use with 16 MPI tasks x no OpenMP threads

Minimization stats:
  Stopping criterion = energy tolerance
  Energy initial, next-to-last, final = 
     -927599.072566262  -927604.919847452  -927604.919729572
  Force two-norm initial, final = 228.35560 63.800842
  Force max component initial, final = 193.88066 51.750782
  Final line search alpha, max atom move = 0.00065661968 0.033980582
  Iterations, force evaluations = 102 204

MPI task timing breakdown:
Section |  min time  |  avg time  |  max time  |%varavg| %total
---------------------------------------------------------------
Pair    | 6.0201     | 6.3022     | 6.6225     |   8.3 | 79.06
Neigh   | 0.48447    | 0.49696    | 0.51199    |   1.2 |  6.23
Comm    | 0.036349   | 0.33274    | 0.64347    |  38.0 |  4.17
Output  | 0.00076828 | 0.00080696 | 0.0009783  |   0.0 |  0.01
Modify  | 0.70935    | 0.72409    | 0.73725    |   1.0 |  9.08
Other   |            | 0.1146     |            |       |  1.44

Nlocal:        517.500 ave         525 max         510 min
Histogram: 8 0 0 0 0 0 0 0 0 8
Nghost:        849.250 ave         863 max         825 min
Histogram: 4 0 0 0 0 4 0 0 0 8
Neighs:        48525.0 ave       49147 max       47903 min
Histogram: 8 0 0 0 0 0 0 0 0 8

Total # of neighbors = 776400
Ave neighs/atom = 93.768116
Neighbor list builds = 192
Dangerous builds = 187
WARNING: Using 'neigh_modify every 1 delay 0 check yes' setting during minimization (../min.cpp:188)
Setting up quickmin style minimization ...
  Unit style    : real
  Current step  : 0
Per MPI rank memory allocation (min/avg/max) = 28.28 | 28.57 | 28.69 Mbytes
Step PotEng Lx Ly Lz Pxx Pyy Pzz Press 
       0   -855329.31    252.45723    94.898021    3.2405357     414478.5    50812.996    167467.25    210919.58 
      10   -858450.67    252.45723    94.898021    3.2405357    376806.36    26370.313    205828.66    203001.78 
      20   -866272.49    252.45723    94.898021    3.2405357    279663.37   -31293.459    300564.71    182978.21 
      30   -874739.52    252.45723    94.898021    3.2405357    203298.63    -69388.16    352426.62    162112.36 
      40   -883085.57    252.45723    94.898021    3.2405357    176960.88   -43854.796     289661.6    140922.56 
      50   -889198.76    252.45723    94.898021    3.2405357    190686.96    54643.055    137028.48    127452.83 
      60   -893007.79    252.45723    94.898021    3.2405357    266303.96    184284.37     -6126.45    148153.96 
      70    -897184.8    252.45723    94.898021    3.2405357    370291.37    319497.75   -79153.166    203545.32 
      80   -902308.78    252.45723    94.898021    3.2405357    429214.21    383907.34   -80873.109    244082.82 
      90   -907140.88    252.45723    94.898021    3.2405357    429940.99    375542.54   -68924.686    245519.62 
     100   -909752.32    252.45723    94.898021    3.2405357    393266.96    316747.83   -66682.428    214444.12 
     110   -910328.19    252.45723    94.898021    3.2405357    373662.21    282948.85   -75972.758     193546.1 
     120   -910557.42    252.45723    94.898021    3.2405357    370598.25    280511.86   -67801.554    194436.18 
     130   -910723.78    252.45723    94.898021    3.2405357    371810.14    280728.99   -61509.845    197009.76 
     140   -910874.53    252.45723    94.898021    3.2405357    378544.39    284377.38   -57758.747    201721.01 
     150   -911026.65    252.45723    94.898021    3.2405357    388269.71    287873.54   -58021.944    206040.44 
     160   -911191.49    252.45723    94.898021    3.2405357    398253.98    293656.99   -58746.206    211054.92 
     170   -911470.12    252.45723    94.898021    3.2405357    409384.96    299953.54   -60652.257    216228.75 
     180   -911787.13    252.45723    94.898021    3.2405357    418227.36    304193.84   -62680.861    219913.45 
     190    -912076.8    252.45723    94.898021    3.2405357    422970.35    304559.94   -64720.505    220936.59 
     200    -912328.7    252.45723    94.898021    3.2405357    427615.69    306267.88   -65576.934    222768.88 
     210    -912567.1    252.45723    94.898021    3.2405357    432498.58    308893.58   -66274.002    225039.38 
     220   -912806.12    252.45723    94.898021    3.2405357    437522.15    311688.98   -66981.274    227409.95 
     230   -913045.74    252.45723    94.898021    3.2405357    442557.62     314562.9   -67613.775    229835.58 
     240   -913292.31    252.45723    94.898021    3.2405357    447659.04    317594.42   -68168.561    232361.63 
     250   -913552.42    252.45723    94.898021    3.2405357    452403.41    320248.28   -68664.605    234662.36 
     260   -913836.82    252.45723    94.898021    3.2405357     456708.4    323079.92   -68919.544    236956.26 
     270   -914166.23    252.45723    94.898021    3.2405357    459861.66    325490.65   -68886.671    238821.88 
     280   -914581.07    252.45723    94.898021    3.2405357    460875.06    327372.26       -68354    239964.44 
     290   -915108.46    252.45723    94.898021    3.2405357     458039.8    327736.92   -66965.508    239603.74 
     300   -915760.32    252.45723    94.898021    3.2405357    451494.31    326572.76   -64722.416    237781.55 
     310   -916541.94    252.45723    94.898021    3.2405357    442875.77    324786.56   -62075.516    235195.61 
     320   -917452.37    252.45723    94.898021    3.2405357    434409.35    323250.94   -59740.882     232639.8 
     330   -918458.19    252.45723    94.898021    3.2405357    426668.79    321773.42   -57852.144    230196.69 
     340   -919489.13    252.45723    94.898021    3.2405357    420234.79    320756.99   -56486.183    228168.53 
     350   -920468.27    252.45723    94.898021    3.2405357    416005.13    320492.57   -56058.644    226813.02 
     360   -921340.21    252.45723    94.898021    3.2405357    414255.03    320778.14   -56843.466    226063.23 
     370   -922065.73    252.45723    94.898021    3.2405357    413453.99    320347.59   -58503.111    225099.49 
     380   -922560.19    252.45723    94.898021    3.2405357    410507.66     315262.4   -60163.269    221868.93 
     390   -922816.03    252.45723    94.898021    3.2405357    406915.61    311360.98    -60270.29    219335.43 
     400   -922961.94    252.45723    94.898021    3.2405357    403586.55    308282.26   -60086.361    217260.81 
     410   -923052.97    252.45723    94.898021    3.2405357    401237.65    307054.81    -59500.81    216263.88 
     420   -923119.36    252.45723    94.898021    3.2405357    399026.57    305964.37   -58848.501    215380.82 
     430   -923176.28    252.45723    94.898021    3.2405357    396884.43    305134.24   -57956.412    214687.42 
     440   -923236.74    252.45723    94.898021    3.2405357    394637.83    304306.03   -56930.359     214004.5 
     450   -923298.44    252.45723    94.898021    3.2405357    392172.97    303401.22   -55820.715    213251.16 
     460   -923358.04    252.45723    94.898021    3.2405357    389492.14     302350.3   -54715.793    212375.55 
     470   -923399.95    252.45723    94.898021    3.2405357    386746.24    301583.94   -53589.508    211580.22 
     480   -923414.85    252.45723    94.898021    3.2405357    384041.48    301165.75   -52515.482    210897.25 
     490   -923481.53    252.45723    94.898021    3.2405357    381116.69    299707.65   -51355.472    209822.95 
     500    -923557.1    252.45723    94.898021    3.2405357    378323.75    298088.34   -50203.569    208736.18 
     510   -923629.37    252.45723    94.898021    3.2405357    375802.38    296632.78    -49252.65     207727.5 
     520   -923700.67    252.45723    94.898021    3.2405357    373445.69    295276.01   -48518.512     206734.4 
     530   -923766.77    252.45723    94.898021    3.2405357    371342.39     294025.2   -47852.695     205838.3 
     540   -923829.26    252.45723    94.898021    3.2405357    369289.96    292876.57    -47229.48    204979.01 
     550   -923891.84    252.45723    94.898021    3.2405357    367267.57    291674.36   -46419.296    204174.21 
     560   -923954.56    252.45723    94.898021    3.2405357    365247.81     290363.8   -45612.014     203333.2 
     570   -924019.41    252.45723    94.898021    3.2405357    363224.57    289020.42   -44806.259    202479.58 
     580   -924086.44    252.45723    94.898021    3.2405357    361182.67    287545.21   -44094.607    201544.42 
     590   -924153.65    252.45723    94.898021    3.2405357    359271.51     286092.9    -43486.44    200625.99 
     600   -924222.13    252.45723    94.898021    3.2405357    357480.33    284668.39   -43043.026     199701.9 
     610   -924286.71    252.45723    94.898021    3.2405357    355857.64    283344.42   -42773.719    198809.45 
     620   -924349.01    252.45723    94.898021    3.2405357    354370.98     282170.7   -42565.797    197991.96 
     630   -924407.18    252.45723    94.898021    3.2405357    352970.44    281048.12   -42399.169    197206.46 
     640   -924461.41    252.45723    94.898021    3.2405357    351654.49    280050.28   -42184.317    196506.82 
     650   -924513.09    252.45723    94.898021    3.2405357    350366.09    279080.59   -41926.562    195840.04 
     660   -924561.71    252.45723    94.898021    3.2405357    349130.63    278150.32   -41608.804    195224.05 
     670   -924607.42    252.45723    94.898021    3.2405357    347969.03    277273.01   -41258.547    194661.17 
     680   -924652.81    252.45723    94.898021    3.2405357    346906.08    276551.03   -40861.401    194198.57 
     690    -924702.1    252.45723    94.898021    3.2405357    345874.84    275862.78   -40520.657    193738.99 
     700    -924753.9    252.45723    94.898021    3.2405357    344903.92    275242.91   -40239.062    193302.59 
     710   -924801.16    252.45723    94.898021    3.2405357    343918.41    274555.87   -40008.441    192821.95 
     720   -924845.81    252.45723    94.898021    3.2405357    342913.31    273953.56   -39634.741    192410.71 
     730   -924889.77    252.45723    94.898021    3.2405357    341878.69    273303.75   -39202.332    191993.37 
     740   -924934.23    252.45723    94.898021    3.2405357    340830.73    272621.03   -38714.487    191579.09 
     750   -924981.62    252.45723    94.898021    3.2405357    339764.43    271966.02   -38206.122    191174.78 
     760   -925031.52    252.45723    94.898021    3.2405357    338677.04    271152.68   -37835.869    190664.62 
     770   -925078.87    252.45723    94.898021    3.2405357    337672.96    270455.06   -37475.974    190217.35 
     780   -925127.95    252.45723    94.898021    3.2405357    336644.24     269740.7    -37042.98    189780.66 
     790    -925176.7    252.45723    94.898021    3.2405357    335649.57    268986.53   -36688.939    189315.72 
     800   -925222.33    252.45723    94.898021    3.2405357    334746.37    268273.29    -36414.56    188868.36 
     810   -925263.09    252.45723    94.898021    3.2405357    333931.35     267605.9   -36197.559    188446.56 
     820   -925298.24    252.45723    94.898021    3.2405357    333212.98    267031.37   -36022.217    188074.04 
     830    -925330.8    252.45723    94.898021    3.2405357    332592.04    266594.35   -35811.959    187791.48 
     840   -925362.48    252.45723    94.898021    3.2405357    331994.41    266163.27   -35619.577     187512.7 
     850   -925391.55    252.45723    94.898021    3.2405357    331445.97    265758.63   -35502.374    187234.08 
     860   -925417.24    252.45723    94.898021    3.2405357    330955.99    265405.71   -35430.325    186977.13 
     870   -925440.78    252.45723    94.898021    3.2405357    330506.94    265105.92   -35326.751    186762.04 
     880   -925463.06    252.45723    94.898021    3.2405357    330045.11    264796.24   -35235.123    186535.41 
     890   -925483.44    252.45723    94.898021    3.2405357     329603.6    264503.84    -35155.66    186317.26 
     900    -925502.1    252.45723    94.898021    3.2405357    329198.41    264235.15   -35075.079    186119.49 
     910   -925519.12    252.45723    94.898021    3.2405357    328817.23    264004.05   -35000.875    185940.14 
     920   -925535.76    252.45723    94.898021    3.2405357    328445.68    263779.17   -34929.782    185765.02 
     930    -925551.7    252.45723    94.898021    3.2405357    328081.16     263562.7   -34860.962     185594.3 
     940   -925567.14    252.45723    94.898021    3.2405357    327722.51    263353.28   -34798.086     185425.9 
     950   -925581.73    252.45723    94.898021    3.2405357    327366.17    263156.08   -34745.732    185258.84 
     960    -925596.7    252.45723    94.898021    3.2405357    327021.28    262960.83   -34677.787    185101.44 
     970   -925611.38    252.45723    94.898021    3.2405357    326684.31    262772.08    -34603.23    184951.05 
     980   -925625.93    252.45723    94.898021    3.2405357    326344.09    262589.73   -34530.541     184801.1 
     990    -925640.5    252.45723    94.898021    3.2405357    325993.37    262406.14   -34472.073    184642.48 
    1000   -925655.67    252.45723    94.898021    3.2405357    325659.44     262230.2   -34398.431    184497.07 
    1010   -925671.29    252.45723    94.898021    3.2405357    325330.54     262059.3   -34322.257    184355.86 
    1020   -925687.36    252.45723    94.898021    3.2405357    325006.32    261890.26   -34247.657    184216.31 
    1030   -925702.98    252.45723    94.898021    3.2405357    324694.42    261735.25   -34178.227    184083.82 
    1040   -925718.43    252.45723    94.898021    3.2405357    324374.94    261582.41   -34132.401    183941.65 
    1050   -925733.55    252.45723    94.898021    3.2405357    324073.13    261438.19   -34062.517    183816.27 
    1060   -925748.48    252.45723    94.898021    3.2405357     323768.9    261292.29   -34008.313    183684.29 
    1070   -925762.94    252.45723    94.898021    3.2405357    323475.45    261156.89   -33958.067    183558.09 
    1080   -925777.69    252.45723    94.898021    3.2405357    323195.25    261026.99   -33902.032    183440.07 
    1090   -925792.36    252.45723    94.898021    3.2405357    322921.37    260908.67    -33851.17    183326.29 
    1100   -925806.18    252.45723    94.898021    3.2405357    322675.46    260842.02   -33801.684     183238.6 
    1110   -925819.27    252.45723    94.898021    3.2405357    322431.94    260770.15   -33776.413    183141.89 
    1120   -925831.84    252.45723    94.898021    3.2405357     322200.5    260672.72   -33750.718    183040.83 
    1130   -925843.08    252.45723    94.898021    3.2405357    321978.29     260575.3   -33727.016    182942.19 
    1140    -925853.6    252.45723    94.898021    3.2405357    321775.21    260489.19   -33696.538    182855.96 
    1150   -925863.58    252.45723    94.898021    3.2405357    321560.99    260399.78   -33680.936    182759.95 
    1160   -925873.84    252.45723    94.898021    3.2405357    321359.19    260310.48   -33632.529    182679.05 
    1170   -925883.69    252.45723    94.898021    3.2405357    321126.95    260207.98   -33621.915    182571.01 
    1180   -925893.38    252.45723    94.898021    3.2405357     320919.2    260121.36   -33582.629    182485.98 
    1190   -925903.26    252.45723    94.898021    3.2405357     320708.3    260029.35   -33557.272    182393.46 
    1200   -925912.73    252.45723    94.898021    3.2405357    320502.42    259945.96   -33531.905    182305.49 
    1210   -925921.89    252.45723    94.898021    3.2405357    320299.13    259871.56   -33505.762    182221.64 
    1220   -925931.82    252.45723    94.898021    3.2405357    320091.85    259781.67   -33473.382    182133.38 
    1230   -925941.35    252.45723    94.898021    3.2405357    319880.01    259698.52   -33444.074    182044.82 
    1240   -925950.73    252.45723    94.898021    3.2405357    319675.57    259619.32   -33395.336    181966.52 
    1250   -925960.24    252.45723    94.898021    3.2405357    319445.23    259529.65   -33366.731    181869.38 
    1260   -925970.09    252.45723    94.898021    3.2405357    319205.18    259438.15    -33323.16    181773.39 
    1270   -925980.71    252.45723    94.898021    3.2405357     318935.2    259335.26    -33286.34    181661.37 
    1280   -925991.79    252.45723    94.898021    3.2405357    318661.81     259229.4   -33225.719    181555.16 
    1290   -926003.71    252.45723    94.898021    3.2405357    318367.31    259109.69   -33173.409    181434.53 
    1300   -926016.32    252.45723    94.898021    3.2405357    318056.46    258979.17   -33115.416    181306.74 
    1310   -926029.26    252.45723    94.898021    3.2405357    317729.85     258839.3   -33070.492    181166.22 
    1320   -926041.96    252.45723    94.898021    3.4082076    301810.66    245983.02   -31364.372     172143.1 
    1330   -926054.91    252.45723    94.898021    3.4082076    301512.91    245856.08   -31302.798    172022.06 
    1340   -926068.56    252.45723    94.898021    3.4082076       301198       245720   -31263.844    171884.72 
    1350   -926082.07    252.45723    94.898021    3.4082076    300906.48    245597.73   -31191.652    171770.85 
    1360   -926095.59    252.45723    94.898021    3.4082076     300614.4    245472.12   -31123.478    171654.35 
    1370    -926108.8    252.45723    94.898021    3.4082076    300301.57    245337.13   -31072.858    171521.95 
    1380   -926121.93    252.45723    94.898021    3.4082076    299994.24    245207.84   -30980.794     171407.1 
    1390   -926135.51    252.45723    94.898021    3.4082076    299627.83    245054.23   -30916.092    171255.32 
    1400    -926149.8    252.45723    94.898021    3.4082076    299247.13    244890.11   -30812.224    171108.34 
    1410   -926165.14    252.45723    94.898021    3.4082076    298818.97    244700.99   -30719.691    170933.42 
    1420   -926181.22    252.45723    94.898021    3.4082076    298390.04    244526.38   -30571.662    170781.58 
    1430   -926198.65    252.45723    94.898021    3.4082076    297894.97    244322.96   -30475.216    170580.91 
    1440   -926216.93    252.45723    94.898021    3.4082076    297428.29    244133.42    -30304.64    170419.02 
    1450   -926235.66    252.45723    94.898021    3.4082076    296952.61    243961.44   -30134.114    170259.98 
    1460   -926255.25    252.45723    94.898021    3.4082076    296472.22    243838.42   -30002.194    170102.82 
    1470   -926275.25    252.45723    94.898021    3.4082076    295917.94    243669.03   -29881.933    169901.68 
    1480   -926296.09    252.45723    94.898021    3.4082076    295464.08    243554.22   -29586.802     169810.5 
    1490    -926317.7    252.45723    94.898021    3.4082076    294896.16    243403.76   -29455.812     169614.7 
    1500   -926339.49    252.45723    94.898021    3.4082076    294355.42    243259.88   -29299.118    169438.72 
    1510   -926362.52    252.45723    94.898021    3.4082076    293820.86    243097.77   -29137.233    169260.47 
    1520    -926387.3    252.45723    94.898021    3.4082076    293405.17    242995.15   -28853.881    169182.15 
    1530   -926412.98    252.45723    94.898021    3.4082076    292786.55    242800.72   -28845.423    168913.95 
    1540   -926440.14    252.45723    94.898021    3.4082076    292455.57    242719.17   -28448.468    168908.76 
    1550   -926468.42    252.45723    94.898021    3.4082076    291882.27    242573.27    -28409.29    168682.08 
    1560   -926499.41    252.45723    94.898021    3.4082076    291362.77    242420.48   -28245.424    168512.61 
    1570   -926532.28    252.45723    94.898021    3.4082076    290804.12    242241.28   -28086.602     168319.6 
    1580   -926566.46    252.45723    94.898021    3.4082076    290207.27    242017.05   -27945.797    168092.84 
    1590   -926599.95    252.45723    94.898021    3.4082076    289635.51    241794.66    -27800.15    167876.67 
    1600   -926632.67    252.45723    94.898021    3.4082076    289050.79    241568.62   -27723.339    167632.02 
    1610    -926664.3    252.45723    94.898021    3.4082076    288512.35       241360   -27621.882    167416.82 
    1620   -926695.29    252.45723    94.898021    3.4082076    287975.94    241171.28   -27562.879    167194.78 
    1630   -926725.64    252.45723    94.898021    3.4082076    287470.04    241002.54   -27506.124    166988.82 
    1640   -926755.74    252.45723    94.898021    3.4082076    286979.34    240863.86   -27482.811     166786.8 
    1650   -926785.04    252.45723    94.898021    3.4082076    286534.79    240748.87    -27463.77    166606.63 
    1660   -926813.42    252.45723    94.898021    3.4082076    286135.98    240649.27   -27473.929    166437.11 
    1670    -926839.7    252.45723    94.898021    3.4082076    285799.57    240572.99   -27480.436    166297.38 
    1680   -926863.82    252.45723    94.898021    3.4082076    285503.82    240501.52    -27498.95     166168.8 
    1690    -926885.4    252.45723    94.898021    3.4082076    285252.35    240447.88   -27510.901    166063.11 
    1700   -926903.76    252.45723    94.898021    3.4082076    285026.16    240399.52   -27537.727    165962.65 
    1710   -926919.38    252.45723    94.898021    3.4082076    284837.99    240347.82   -27537.539    165882.76 
    1720   -926932.46    252.45723    94.898021    3.4082076    284670.14    240291.64   -27527.958    165811.27 
    1730   -926943.63    252.45723    94.898021    3.4082076    284503.42    240224.74    -27533.92    165731.41 
    1740   -926953.59    252.45723    94.898021    3.4082076    284359.09    240154.16   -27522.087    165663.72 
    1750   -926962.39    252.45723    94.898021    3.4082076    284231.37    240087.81   -27503.537    165605.22 
    1760   -926969.96    252.45723    94.898021    3.4082076    284105.14    240027.99   -27506.171    165542.32 
    1770   -926977.57    252.45723    94.898021    3.4082076    283999.79    239969.25   -27493.219    165491.94 
    1780   -926983.49    252.45723    94.898021    3.4082076    283916.44    239930.71   -27481.497    165455.22 
    1790   -926988.72    252.45723    94.898021    3.4082076     283827.4    239894.86   -27492.403    165409.95 
    1800   -926993.94    252.45723    94.898021    3.4082076    283757.12    239860.76   -27482.734    165378.38 
    1810   -926998.68    252.45723    94.898021    3.4082076       283687    239829.59    -27486.99     165343.2 
    1820   -927003.08    252.45723    94.898021    3.4082076    283623.54    239797.61   -27494.004    165309.05 
    1830   -927007.11    252.45723    94.898021    3.4082076    283563.79    239770.53   -27511.539    165274.26 
    1840   -927010.83    252.45723    94.898021    3.4082076    283516.81    239748.43   -27518.424    165248.94 
    1850   -927014.88    252.45723    94.898021    3.4082076    283464.31    239718.57   -27536.988     165215.3 
    1860    -927018.1    252.45723    94.898021    3.4082076    283427.57     239706.8    -27544.72    165196.55 
    1870   -927021.61    252.45723    94.898021    3.4082076     283376.7    239683.49   -27575.963    165161.41 
    1880   -927024.56    252.45723    94.898021    3.4082076    283341.87     239672.4   -27590.085    165141.39 
    1890   -927028.01    252.45723    94.898021    3.4082076    283293.86    239649.25   -27616.437    165108.89 
    1900   -927030.94    252.45723    94.898021    3.4082076    283256.72    239635.28   -27629.213     165087.6 
    1910   -927033.97    252.45723    94.898021    3.4082076    283220.24     239619.2   -27638.076    165067.12 
    1920   -927036.91    252.45723    94.898021    3.4082076       283175    239600.62   -27658.601    165039.01 
    1930   -927039.77    252.45723    94.898021    3.4082076    283131.27    239581.54   -27676.078    165012.25 
    1940   -927042.62    252.45723    94.898021    3.4082076    283093.63     239560.6   -27680.761    164991.16 
    1950   -927045.23    252.45723    94.898021    3.4082076    283048.88    239541.56    -27693.29    164965.72 
    1960   -927047.77    252.45723    94.898021    3.4082076    283001.68    239520.55   -27705.815     164938.8 
    1970   -927050.45    252.45723    94.898021    3.4082076    282963.73    239501.49   -27701.114    164921.37 
    1980   -927052.86    252.45723    94.898021    3.4082076    282918.23    239483.08   -27705.821    164898.49 
    1990   -927055.38    252.45723    94.898021    3.4082076    282865.87    239459.78   -27716.919    164869.58 
    2000   -927058.17    252.45723    94.898021    3.4082076    282818.29    239435.39   -27716.787    164845.63 
    2010   -927060.64    252.45723    94.898021    3.4082076    282772.24    239415.22   -27715.828    164823.87 
    2020   -927063.31    252.45723    94.898021    3.4082076    282717.59    239388.25   -27728.645     164792.4 
    2030   -927066.01    252.45723    94.898021    3.4082076    282671.64    239363.23   -27730.174    164768.23 
    2040   -927068.31    252.45723    94.898021    3.4082076     282625.2    239343.35   -27733.082    164745.16 
    2050   -927070.63    252.45723    94.898021    3.4082076    282569.47    239321.29   -27746.484    164714.76 
    2060   -927073.13    252.45723    94.898021    3.4082076    282521.07    239297.88   -27747.306    164690.55 
    2070   -927075.52    252.45723    94.898021    3.4082076    282472.16    239275.04   -27749.892    164665.77 
    2080   -927078.44    252.45723    94.898021    3.4082076    282417.68    239243.79   -27756.911    164634.85 
    2090   -927081.13    252.45723    94.898021    3.4082076    282363.26    239220.42   -27763.028    164606.89 
    2099   -927083.42    252.45723    94.898021    3.4082076    282305.42    239196.62   -27783.409    164572.88 
Loop time of 87.619 on 16 procs for 2099 steps with 8280 atoms

99.7% CPU use with 16 MPI tasks x no OpenMP threads

Minimization stats:
  Stopping criterion = energy tolerance
  Energy initial, next-to-last, final = 
     -855329.309804524  -927083.364710045   -927083.41607931
  Force two-norm initial, final = 12275.555 62.211583
  Force max component initial, final = 184.86274 17.567088
  Final line search alpha, max atom move = 0.0000000 0.0000000
  Iterations, force evaluations = 2099 2099

MPI task timing breakdown:
Section |  min time  |  avg time  |  max time  |%varavg| %total
---------------------------------------------------------------
Pair    | 65.356     | 71.927     | 78.17      |  40.4 | 82.09
Neigh   | 0.0025673  | 0.0026999  | 0.0028377  |   0.2 |  0.00
Comm    | 0.139      | 4.4883     | 8.4863     | 146.2 |  5.12
Output  | 0.22854    | 0.22887    | 0.23047    |   0.1 |  0.26
Modify  | 8.6696     | 10.573     | 14.706     |  72.6 | 12.07
Other   |            | 0.3989     |            |       |  0.46

Nlocal:        517.500 ave         525 max         510 min
Histogram: 8 0 0 0 0 0 0 0 0 8
Nghost:        854.188 ave         888 max         817 min
Histogram: 3 3 2 0 0 0 0 0 2 6
Neighs:        50031.5 ave       50983 max       49058 min
Histogram: 3 1 3 1 0 0 1 2 1 4

Total # of neighbors = 800504
Ave neighs/atom = 96.679227
Neighbor list builds = 1
Dangerous builds = 0
WARNING: Using 'neigh_modify every 1 delay 0 check yes' setting during minimization (../min.cpp:188)
Setting up quickmin style minimization ...
  Unit style    : real
  Current step  : 2099
Per MPI rank memory allocation (min/avg/max) = 28.28 | 28.57 | 28.69 Mbytes
Step PotEng Lx Ly Lz Pxx Pyy Pzz Press 
    2099   -927083.42    252.45723    94.898021    3.4946948    275318.88    233276.94   -27095.768    160500.02 
    2100   -927083.42    252.45723    94.898021    3.4946948    275313.35    233264.89   -27100.021    160492.74 
    2105   -927083.47    252.45723    94.898021    3.4946948    275312.61    233264.67   -27099.766     160492.5 
Loop time of 0.295602 on 16 procs for 6 steps with 8280 atoms

99.7% CPU use with 16 MPI tasks x no OpenMP threads

Minimization stats:
  Stopping criterion = energy tolerance
  Energy initial, next-to-last, final = 
     -927083.416002712  -927083.573059362  -927083.468767468
  Force two-norm initial, final = 62.211191 62.212520
  Force max component initial, final = 17.566391 17.590684
  Final line search alpha, max atom move = 0.0000000 0.0000000
  Iterations, force evaluations = 6 6

MPI task timing breakdown:
Section |  min time  |  avg time  |  max time  |%varavg| %total
---------------------------------------------------------------
Pair    | 0.21199    | 0.23765    | 0.25912    |   2.6 | 80.39
Neigh   | 0          | 0          | 0          |   0.0 |  0.00
Comm    | 0.00042771 | 0.015347   | 0.034189   |   8.7 |  5.19
Output  | 0.0013747  | 0.001378   | 0.0013902  |   0.0 |  0.47
Modify  | 0.032366   | 0.038957   | 0.054792   |   4.3 | 13.18
Other   |            | 0.002274   |            |       |  0.77

Nlocal:        517.500 ave         525 max         510 min
Histogram: 8 0 0 0 0 0 0 0 0 8
Nghost:        855.438 ave         888 max         817 min
Histogram: 2 4 2 0 0 0 0 0 2 6
Neighs:        50017.9 ave       50899 max       49067 min
Histogram: 3 1 3 1 0 0 1 2 1 4

Total # of neighbors = 800287
Ave neighs/atom = 96.653019
Neighbor list builds = 0
Dangerous builds = 0
Total wall time: 0:01:36
