LAMMPS (29 Sep 2021)
Processor partition = 2
Reading data file ...
  orthogonal box = (0.0000000 0.0000000 0.0000000) to (252.43931 94.898589 20.000000)
  8 by 2 by 1 MPI processor grid
  reading atoms ...
  8280 atoms
  read_data CPU = 0.105 seconds

CITE-CITE-CITE-CITE-CITE-CITE-CITE-CITE-CITE-CITE-CITE-CITE-CITE

Your simulation uses code contributions which should be cited:
- pair reaxff command:
- fix qeq/reaxff command:
The log file lists these citations in BibTeX format.

CITE-CITE-CITE-CITE-CITE-CITE-CITE-CITE-CITE-CITE-CITE-CITE-CITE

WARNING: Using 'neigh_modify every 1 delay 0 check yes' setting during minimization (../min.cpp:188)
Neighbor list info ...
  update every 1 steps, delay 0 steps, check yes
  max neighbors/atom: 2000, page size: 100000
  master list distance cutoff = 12
  ghost atom cutoff = 12
  binsize = 6, bins = 43 16 1
  2 neighbor lists, perpetual/occasional/extra = 2 0 0
  (1) pair reaxff, perpetual
      attributes: half, newton off, ghost
      pair build: half/bin/newtoff/ghost
      stencil: full/ghost/bin/3d
      bin: standard
  (2) fix qeq/reaxff, perpetual, copy from (1)
      attributes: half, newton off, ghost
      pair build: copy
      stencil: none
      bin: none
Setting up cg style minimization ...
  Unit style    : real
  Current step  : 0
WARNING: Energy due to 3 extra global DOFs will be included in minimizer energies
Per MPI rank memory allocation (min/avg/max) = 28.38 | 28.66 | 28.76 Mbytes
Step PotEng Lx Ly Lz Pxx Pyy Pzz Press 
       0   -927599.07    252.43931    94.898589    3.2398727    95.078367   -171.28286   -481.59633   -185.93361 
      10   -927599.91    252.44265    94.899297    3.2400128    10.042037   -284.21732   -376.42281   -216.86603 
      20   -927600.67    252.44368    94.899019    3.2401406    61.466989   -230.06693   -403.85335   -190.81776 
      30   -927601.39    252.44473      94.8995    3.2402669    100.45198   -291.06946   -373.99934   -188.20561 
      40   -927602.03    252.44697    94.899026    3.2403912    70.243408   -210.79581   -376.30929   -172.28723 
      50   -927602.65    252.44748    94.899452    3.2405147    129.48776   -257.66293   -361.29843   -163.15787 
      60   -927603.18    252.44992    94.899023    3.2406242    75.284061    -183.8789   -350.49084   -153.02856 
      70    -927603.7    252.45057    94.899504     3.240733    113.79371   -239.06587   -323.51435    -149.5955 
      80   -927604.14    252.45258    94.899082    3.2408373    74.189739   -163.46093   -321.02581   -136.76566 
      90   -927604.56    252.45312    94.899515    3.2409402    109.44339   -210.22843   -297.60562   -132.79689 
     100   -927604.92    252.45493    94.899152    3.2410303    72.650522   -143.06327   -293.98722   -121.46666 
     102   -927604.92    252.45723    94.898021    3.2410304   -45.719234    18.855002   -310.72969   -112.53131 
Loop time of 7.1815 on 16 procs for 102 steps with 8280 atoms

99.6% CPU use with 16 MPI tasks x no OpenMP threads

Minimization stats:
  Stopping criterion = energy tolerance
  Energy initial, next-to-last, final = 
     -927599.072566262  -927604.919847452  -927604.919729572
  Force two-norm initial, final = 228.35560 63.800842
  Force max component initial, final = 193.88066 51.750782
  Final line search alpha, max atom move = 0.00065661968 0.033980582
  Iterations, force evaluations = 102 204

MPI task timing breakdown:
Section |  min time  |  avg time  |  max time  |%varavg| %total
---------------------------------------------------------------
Pair    | 5.6008     | 5.8295     | 6.1129     |   8.4 | 81.17
Neigh   | 0.42124    | 0.43306    | 0.44499    |   1.0 |  6.03
Comm    | 0.024375   | 0.29735    | 0.52393    |  36.7 |  4.14
Output  | 0.00037718 | 0.0003992  | 0.00047553 |   0.0 |  0.01
Modify  | 0.57756    | 0.58853    | 0.60024    |   0.9 |  8.20
Other   |            | 0.03264    |            |       |  0.45

Nlocal:        517.500 ave         525 max         510 min
Histogram: 8 0 0 0 0 0 0 0 0 8
Nghost:        849.250 ave         863 max         825 min
Histogram: 4 0 0 0 0 4 0 0 0 8
Neighs:        48525.0 ave       49147 max       47903 min
Histogram: 8 0 0 0 0 0 0 0 0 8

Total # of neighbors = 776400
Ave neighs/atom = 93.768116
Neighbor list builds = 192
Dangerous builds = 187
WARNING: Using 'neigh_modify every 1 delay 0 check yes' setting during minimization (../min.cpp:188)
Setting up quickmin style minimization ...
  Unit style    : real
  Current step  : 0
Per MPI rank memory allocation (min/avg/max) = 28.27 | 28.56 | 28.67 Mbytes
Step PotEng Lx Ly Lz Pxx Pyy Pzz Press 
       0   -808378.66    252.45723    94.898021    3.2408325     423170.1   -4479.7169    162798.23    193829.54 
      10    -811197.2    252.45723    94.898021    3.2408325    384502.07   -36054.371    210083.42    186177.04 
      20   -818712.11    252.45723    94.898021    3.2408325    272256.32   -126021.79    350146.31    165460.28 
      30   -829089.36    252.45723    94.898021    3.2408325    135730.31   -224780.08    509188.25    140046.16 
      40   -844289.11    252.45723    94.898021    3.2408325     12866.02   -219149.22    540168.37    111295.06 
      50   -860288.93    252.45723    94.898021    3.2408325   -7543.2963   -42636.361    295557.03    81792.457 
      60    -868871.5    252.45723    94.898021    3.2408325    116769.97    182629.36    36848.308    112082.55 
      70   -873850.91    252.45723    94.898021    3.2408325    239604.64    286334.57    -47575.81    159454.47 
      80   -877290.23    252.45723    94.898021    3.2408325    235324.79    303083.42   -33339.471    168356.25 
      90   -880184.58    252.45723    94.898021    3.2408325    229580.18    300427.68   -17481.634    170842.08 
     100   -882329.71    252.45723    94.898021    3.2408325    221101.88    295916.52   -8288.0411    169576.78 
     110    -883187.1    252.45723    94.898021    3.2408325    200678.11    284450.78   -29445.339    151894.52 
     120   -883686.32    252.45723    94.898021    3.2408325    202140.88    284165.86   -23273.548     154344.4 
     130   -884109.54    252.45723    94.898021    3.2408325    203695.44    284118.14   -17385.791    156809.26 
     140   -884442.85    252.45723    94.898021    3.2408325    204845.16    284015.66   -12597.201    158754.54 
     150   -884639.16    252.45723    94.898021    3.2408325    203788.39    281975.96     -11944.2    157940.05 
     160   -884735.31    252.45723    94.898021    3.2408325    204378.66    282006.78   -9801.0753    158861.45 
     170   -884812.34    252.45723    94.898021    3.2408325    204807.61    281960.08   -7969.0528    159599.54 
     180   -884874.73    252.45723    94.898021    3.2408325    205170.71    281984.41   -6376.8836    160259.41 
     190   -884926.89    252.45723    94.898021    3.2408325    205453.48    282001.15   -5012.1792    160814.15 
     200   -884970.75    252.45723    94.898021    3.2408325    205690.89    282061.49   -3842.0114    161303.45 
     210   -885009.87    252.45723    94.898021    3.2408325    205922.61    282208.93   -2770.1922    161787.12 
     220   -885046.08    252.45723    94.898021    3.2408325    206087.82    282337.21   -1826.0961    162199.64 
     230   -885079.66    252.45723    94.898021    3.2408325    206190.43    282455.01   -1018.5985    162542.28 
     240   -885111.12    252.45723    94.898021    3.2408325    206225.77    282505.48   -326.81945    162801.48 
     250   -885141.63    252.45723    94.898021    3.2408325    206212.21    282475.86    241.98929    162976.69 
     260   -885169.81    252.45723    94.898021    3.2408325    206125.84    282350.99    651.36008    163042.73 
     270   -885194.59    252.45723    94.898021    3.2408325    206005.92    282148.89    963.09827     163039.3 
     280   -885216.23    252.45723    94.898021    3.2408325    205886.83    281975.08    1193.6765    163018.53 
     290    -885235.7    252.45723    94.898021    3.2408325    205780.51    281855.92    1363.1689    162999.87 
     300   -885253.37    252.45723    94.898021    3.2408325    205688.28    281768.96    1488.9443    162982.06 
     310   -885269.95    252.45723    94.898021    3.2408325    205607.19    281707.12    1595.0082    162969.77 
     320   -885286.07    252.45723    94.898021    3.2408325    205530.28       281664    1686.3061     162960.2 
     330   -885302.45    252.45723    94.898021    3.2408325    205458.62    281652.81    1767.4147    162959.62 
     340   -885320.42    252.45723    94.898021    3.2408325    205390.53       281680    1844.8835     162971.8 
     350   -885340.94    252.45723    94.898021    3.2408325    205325.04    281762.21     1919.336     163002.2 
     360   -885365.34    252.45723    94.898021    3.2408325    205257.18    281898.33    1992.0257    163049.18 
     370   -885394.14    252.45723    94.898021    3.2408325    205186.76    282112.86    2058.3061    163119.31 
     380   -885427.04    252.45723    94.898021    3.2408325    205008.03    282074.54    2109.2298    163063.93 
     390   -885455.96    252.45723    94.898021    3.2408325    204778.35     281847.2    2136.7095    162920.75 
     400    -885481.4    252.45723    94.898021    3.2408325    204474.52    281349.22    2146.9943    162656.91 
     410   -885502.55    252.45723    94.898021    3.2408325    204301.05    281183.49     2155.286    162546.61 
     420   -885520.26    252.45723    94.898021    3.2408325    204141.03    281008.59    2158.5513    162436.06 
     430    -885536.5    252.45723    94.898021    3.2408325    204025.96    280944.58    2161.3841    162377.31 
     440   -885553.56    252.45723    94.898021    3.2408325    203922.17    280924.21    2164.4491    162336.94 
     450   -885571.68    252.45723    94.898021    3.2408325    203816.89    280924.18    2166.5585    162302.54 
     460   -885590.88    252.45723    94.898021    3.2408325    203688.43    280880.14    2166.2784    162244.95 
     470   -885611.38    252.45723    94.898021    3.2408325     203556.1    280848.59    2165.1691    162189.95 
     480   -885632.18    252.45723    94.898021    3.2408325    203414.18    280804.62    2161.9624    162126.92 
     490   -885653.49    252.45723    94.898021    3.2408325    203250.71    280708.88    2156.5678    162038.72 
     500   -885674.03    252.45723    94.898021    3.2408325    203081.76    280585.44    2150.2225    161939.14 
     510   -885693.01    252.45723    94.898021    3.2408325     202927.9    280478.52    2144.4178    161850.28 
     520   -885711.89    252.45723    94.898021    3.2408325    202782.95    280405.27    2139.4104    161775.88 
     530   -885730.53    252.45723    94.898021    3.2408325    202631.63    280313.44    2134.6072    161693.23 
     540   -885749.43    252.45723    94.898021    3.2408325    202490.23    280259.35    2130.9376    161626.84 
     550   -885769.66    252.45723    94.898021    3.2408325    202345.63    280224.37    2129.8782    161566.63 
     560   -885791.24    252.45723    94.898021    3.2408325    202175.57    280140.91    2130.1632    161482.22 
     570   -885814.14    252.45723    94.898021    3.2408325    202001.36    280066.72    2134.7634    161400.95 
     580   -885838.24    252.45723    94.898021    3.2408325    201799.66    279928.68    2140.2576    161289.53 
     590   -885862.65    252.45723    94.898021    3.2408325    201584.49    279787.24     2135.686    161169.14 
     600   -885887.17    252.45723    94.898021    3.2408325    201351.67    279666.62    2119.2693    161045.85 
     610   -885911.05    252.45723    94.898021    3.2408325    201116.43    279529.31    2113.2904    160919.68 
     620   -885935.92    252.45723    94.898021    3.2408325    200893.83    279395.13    2126.7277    160805.23 
     630   -885962.34    252.45723    94.898021    3.2408325    200651.41     279186.1    2154.2905    160663.93 
     640   -885990.76    252.45723    94.898021    3.2408325     200409.1    278988.45    2186.8984    160528.15 
     650   -886021.16    252.45723    94.898021    3.2408325    200118.85    278772.75    2188.3454    160359.98 
     660   -886051.07    252.45723    94.898021    3.2408325    199789.71     278579.5    2151.5069    160173.57 
     670   -886078.22    252.45723    94.898021    3.2408325    199462.06    278404.94    2100.0719    159989.02 
     680   -886103.32    252.45723    94.898021    3.2408325     199194.5    278327.53    2053.2094    159858.41 
     690   -886129.58    252.45723    94.898021    3.2408325    198938.04     278299.5    2005.5017    159747.68 
     700   -886159.06    252.45723    94.898021    3.2408325     198683.4    278337.61    1957.3416    159659.45 
     710    -886189.8    252.45723    94.898021    3.2408325    198363.69    278286.95    1899.4146    159516.68 
     720   -886221.11    252.45723    94.898021    3.2408325    198061.96    278272.87    1846.0124    159393.61 
     730   -886252.09    252.45723    94.898021    3.2408325    197742.75     278252.3    1784.0816    159259.71 
     740   -886281.37    252.45723    94.898021    3.2408325     197428.5    278252.07    1719.8994    159133.49 
     750   -886309.29    252.45723    94.898021    3.2408325    197149.33    278271.88    1678.1472    159033.12 
     760   -886336.16    252.45723    94.898021    3.2408325    196860.33    278193.59    1654.6775    158902.86 
     770   -886361.06    252.45723    94.898021    3.2408325    196617.48    278150.92    1643.9918    158804.13 
     780   -886386.06    252.45723    94.898021    3.2408325     196377.2    278116.41    1642.7198    158712.11 
     790   -886410.47    252.45723    94.898021    3.2408325    196121.76     278027.4     1640.643     158596.6 
     800   -886433.98    252.45723    94.898021    3.2408325    195866.44    277920.52    1640.4007    158475.79 
     810   -886456.05    252.45723    94.898021    3.2408325    195604.73    277774.29    1639.7412    158339.59 
     820   -886475.98    252.45723    94.898021    3.2408325    195358.25    277622.26    1641.6664    158207.39 
     830   -886495.39    252.45723    94.898021    3.2408325    195140.63    277528.49    1648.8582    158105.99 
     840   -886515.72    252.45723    94.898021    3.2408325    194900.92    277411.54     1655.228    157989.23 
     850   -886535.52    252.45723    94.898021    3.2408325    194639.93    277274.97    1655.3895    157856.76 
     860   -886554.47    252.45723    94.898021    3.2408325    194383.94    277142.13    1659.1012    157728.39 
     870   -886567.44    252.45723    94.898021    3.2408325    194128.96    277094.14    1658.0333    157627.04 
     880   -886585.83    252.45723    94.898021    3.2408325    193864.14    276928.59    1674.9508    157489.23 
     890   -886603.68    252.45723    94.898021    3.2408325     193602.9    276745.05    1697.1238    157348.36 
     900   -886620.94    252.45723    94.898021    3.2408325    193353.72    276557.99    1720.6342    157210.78 
     910   -886637.88    252.45723    94.898021    3.2408325    193111.92    276388.64     1736.811    157079.13 
     920   -886654.26    252.45723    94.898021    3.2408325    192873.13    276224.85    1754.7529    156950.91 
     930   -886670.57    252.45723    94.898021    3.2408325    192637.38    276050.74    1781.3168    156823.15 
     940   -886686.81    252.45723    94.898021    3.2408325    192410.21    275861.49    1818.1973    156696.63 
     950   -886703.29    252.45723    94.898021    3.2408325    192178.83     275651.8    1866.0389    156565.56 
     960    -886720.9    252.45723    94.898021    3.2408325    191937.77    275409.91    1928.7013    156425.46 
     970   -886739.53    252.45723    94.898021    3.2408325    191688.85     275156.4    1993.4885    156279.58 
     980   -886759.42    252.45723    94.898021    3.2408325    191437.54    274891.56     2062.956    156130.69 
     990   -886781.02    252.45723    94.898021    3.2408325    191175.54    274603.82    2137.9852    155972.45 
    1000   -886804.72    252.45723    94.898021    3.2408325     190904.7    274299.91    2210.2263    155804.95 
    1010   -886831.25    252.45723    94.898021    3.2408325    190621.63    273993.44    2262.5163    155625.86 
    1020   -886860.12    252.45723    94.898021    3.2408325    190316.98    273719.39    2253.5722    155429.98 
    1030   -886888.96    252.45723    94.898021    3.2408325    190007.98    273543.33    2156.4657    155235.93 
    1040   -886915.64    252.45723    94.898021    3.2408325    189711.97    273495.12    1984.7631    155063.95 
    1050   -886938.94    252.45723    94.898021    3.2408325    189441.47    273542.32    1789.0197    154924.27 
    1060   -886958.91    252.45723    94.898021    3.2408325    189203.75    273622.53    1616.7132    154814.33 
    1070   -886976.27    252.45723    94.898021    3.2408325    189000.93    273705.48    1484.9512    154730.45 
    1080   -886992.35    252.45723    94.898021    3.2408325    188821.77    273781.99     1384.813    154662.86 
    1090    -887007.9    252.45723    94.898021    3.2408325    188651.72    273842.91    1307.0838    154600.57 
    1100   -887022.81    252.45723    94.898021    3.2408325     188489.9     273887.5    1246.9613    154541.45 
    1110   -887037.34    252.45723    94.898021    3.2408325    188334.79    273923.15    1200.3216    154486.08 
    1120   -887051.46    252.45723    94.898021    3.2408325    188181.08    273946.65    1162.9715    154430.23 
    1130   -887064.98    252.45723    94.898021    3.2408325    188032.56    273963.83    1133.4394    154376.61 
    1140   -887077.96    252.45723    94.898021    3.2408325    187889.09     273977.8    1109.1504    154325.35 
    1150   -887090.55    252.45723    94.898021    3.2408325    187749.27    273992.69    1089.2172    154277.06 
    1160   -887103.09    252.45723    94.898021    3.2408325       187609    274008.97    1072.2723    154230.08 
    1170   -887115.59    252.45723    94.898021    3.2408325     187467.1    274019.53    1058.3709    154181.67 
    1180    -887127.8    252.45723    94.898021    3.2408325    187326.97    274024.21    1048.1008     154133.1 
    1190   -887139.66    252.45723    94.898021    3.2408325    187190.87    274024.81    1041.1129     154085.6 
    1200   -887151.38    252.45723    94.898021    3.2408325    187058.14    274023.77    1035.8897    154039.27 
    1210    -887163.1    252.45723    94.898021    3.2408325    186925.57    274024.44    1030.8055    153993.61 
    1220   -887174.82    252.45723    94.898021    3.2408325    186794.01    274022.23    1027.1454    153947.79 
    1230   -887186.32    252.45723    94.898021    3.2408325    186663.84    274016.42    1026.4971    153902.25 
    1240   -887197.77    252.45723    94.898021    3.2408325    186534.65    274002.66    1030.2383    153855.85 
    1250    -887209.2    252.45723    94.898021    3.2408325    186406.05    273983.26    1036.5845    153808.63 
    1260    -887220.9    252.45723    94.898021    3.2408325    186276.11    273962.29    1042.6358    153760.35 
    1270   -887232.95    252.45723    94.898021    3.2408325     186141.5    273941.01    1045.4951    153709.34 
    1280   -887245.15    252.45723    94.898021    3.2408325    186003.04    273912.99    1047.8494    153654.63 
    1290   -887257.43    252.45723    94.898021    3.2408325     185864.1    273880.26    1054.2123    153599.53 
    1300   -887269.91    252.45723    94.898021    3.2408325    185720.22    273841.76    1062.5863    153541.52 
    1310   -887282.48    252.45723    94.898021    3.2408325    185571.19    273791.64    1071.2659    153478.03 
    1320   -887295.04    252.45723    94.898021    3.2408325    185422.69    273739.46    1078.0563     153413.4 
    1330   -887307.54    252.45723    94.898021    3.2408325    185276.71     273689.9    1079.4855     153348.7 
    1340   -887319.83    252.45723    94.898021    3.2408325    185131.23    273644.46    1080.1682    153285.29 
    1350   -887332.21    252.45723    94.898021    3.2408325     184984.9    273595.43    1081.2924    153220.54 
    1360   -887344.23    252.45723    94.898021    3.2408325    184837.62    273547.22    1082.5406    153155.79 
    1370   -887356.22    252.45723    94.898021    3.2408325    184690.47    273497.84     1083.383    153090.56 
    1380   -887368.81    252.45723    94.898021    3.2408325    184541.82     273448.5    1080.4123    153023.58 
    1390   -887381.26    252.45723    94.898021    3.2408325    184389.04    273411.73    1071.8124    152957.53 
    1400   -887393.56    252.45723    94.898021    3.2408325    184233.73     273372.2    1063.8229    152889.92 
    1410   -887405.58    252.45723    94.898021    3.2408325    184078.63    273326.71    1062.9858    152822.77 
    1420   -887417.78    252.45723    94.898021    3.2408325    183920.99    273265.23    1074.0867    152753.44 
    1430   -887430.49    252.45723    94.898021    3.2408325    183764.31    273186.56    1093.0286     152681.3 
    1440   -887444.23    252.45723    94.898021    3.2408325    183605.14    273090.81    1114.2244    152603.39 
    1450   -887458.32    252.45723    94.898021    3.2408325    183441.18    272996.96    1123.8591    152520.67 
    1460   -887472.38    252.45723    94.898021    3.2408325    183277.47    272914.04    1119.5115    152437.01 
    1470   -887485.89    252.45723    94.898021    3.2408325    183114.45    272851.78    1104.1755     152356.8 
    1480   -887498.25    252.45723    94.898021    3.2408325    182957.55    272798.66    1089.2669    152281.83 
    1490   -887509.13    252.45723    94.898021    3.2408325    182814.71    272748.94     1082.523    152215.39 
    1500   -887519.21    252.45723    94.898021    3.2408325    182684.67       272694    1083.8673    152154.18 
    1510   -887528.76    252.45723    94.898021    3.2408325    182562.12    272635.16    1092.3815    152096.55 
    1520   -887536.45    252.45723    94.898021    3.2408325    182444.38    272602.55    1098.2017    152048.38 
    1530    -887546.1    252.45723    94.898021    3.2408325    182321.76    272540.99    1107.7844    151990.18 
    1540   -887557.24    252.45723    94.898021    3.2408325    182194.52    272466.99    1114.7676    151925.42 
    1550   -887569.27    252.45723    94.898021    3.2408325    182059.51    272401.67    1109.6751    151856.95 
    1560   -887582.43    252.45723    94.898021    3.2408325    181912.85    272347.48    1092.6444    151784.33 
    1570   -887596.24    252.45723    94.898021    3.2408325    181757.71    272303.39    1072.3836    151711.16 
    1580    -887610.8    252.45723    94.898021    3.2408325    181593.53    272246.22     1060.896    151633.55 
    1590   -887626.32    252.45723    94.898021    3.2408325    181421.67    272165.84    1061.3698    151549.62 
    1600   -887642.25    252.45723    94.898021    3.2408325     181238.9    272074.97    1071.1663    151461.68 
    1610   -887659.23    252.45723    94.898021    3.2408325     181040.7    271972.59     1085.697    151366.33 
    1620   -887676.94    252.45723    94.898021    3.2408325    180826.59    271853.61    1106.9285    151262.38 
    1630   -887695.84    252.45723    94.898021    3.2408325    180603.72    271705.45    1142.6381     151150.6 
    1640   -887717.05    252.45723    94.898021    3.2408325    180367.01    271520.51    1192.5355    151026.69 
    1650   -887740.72    252.45723    94.898021    3.2408325    180112.15    271324.38    1230.1534    150888.89 
    1660   -887766.75    252.45723    94.898021    3.2408325    179841.21    271126.57    1254.6507    150740.81 
    1670   -887795.12    252.45723    94.898021    3.2408325    179564.43    270939.61    1257.5039    150587.18 
    1680   -887825.32    252.45723    94.898021    3.2408325    179294.54    270767.27    1230.7873    150430.86 
    1690   -887854.54    252.45723    94.898021    3.2408325    179018.39    270641.54    1171.7032    150277.21 
    1700   -887881.73    252.45723    94.898021    3.2408325    178756.83    270562.66    1090.0712    150136.52 
    1710   -887907.28    252.45723    94.898021    3.2408325    178525.41    270503.94    1025.8299    150018.39 
    1720   -887932.46    252.45723    94.898021    3.2408325     178301.3    270456.75    960.17257    149906.07 
    1730   -887955.88    252.45723    94.898021    3.2408325    178075.62    270458.81    871.06046    149801.83 
    1740   -887976.98    252.45723    94.898021    3.2408325    177863.44    270505.17    778.94764    149715.85 
    1750   -887995.84    252.45723    94.898021    3.2408325    177670.53     270563.8     701.6629    149645.33 
    1760   -888012.61    252.45723    94.898021    3.2408325    177494.29    270615.25    658.56023    149589.36 
    1770   -888029.15    252.45723    94.898021    3.2408325     177322.7    270637.64    635.19255    149531.84 
    1780   -888045.27    252.45723    94.898021    3.2408325    177154.92    270634.18     624.6656    149471.26 
    1790   -888061.86    252.45723    94.898021    3.2408325    176991.51    270628.49     617.3559    149412.45 
    1800   -888079.07    252.45723    94.898021    3.2408325    176822.06    270630.76     604.3841     149352.4 
    1810   -888096.44    252.45723    94.898021    3.2408325    176651.07    270645.95    575.80059    149290.94 
    1820    -888112.8    252.45723    94.898021    3.2408325     176486.8    270662.08    553.91373    149234.27 
    1830   -888128.31    252.45723    94.898021    3.2408325    176333.46    270671.21      534.301    149179.66 
    1840   -888142.89    252.45723    94.898021    3.2408325     176194.3    270677.61    519.36588    149130.42 
    1850   -888157.55    252.45723    94.898021    3.2408325    176064.83    270675.74    507.71131    149082.76 
    1860   -888171.92    252.45723    94.898021    3.2408325    175937.57    270669.25    499.55204    149035.45 
    1870   -888185.87    252.45723    94.898021    3.2408325     175814.2     270670.2    481.05904    148988.49 
    1880   -888199.06    252.45723    94.898021    3.2408325    175699.33    270685.93    451.51114    148945.59 
    1890   -888211.21    252.45723    94.898021    3.2408325    175592.39    270715.65    423.15321     148910.4 
    1900   -888222.85    252.45723    94.898021    3.2408325    175485.48    270751.54    402.46049    148879.83 
    1910   -888233.97    252.45723    94.898021    3.2408325    175377.87    270784.11    389.10187    148850.36 
    1920   -888244.39    252.45723    94.898021    3.2408325    175271.46     270804.6    390.38766    148822.15 
    1930   -888254.78    252.45723    94.898021    3.2408325    175166.36    270813.33    395.86159    148791.85 
    1940   -888265.22    252.45723    94.898021    3.2408325    175061.26     270807.1    403.78237    148757.38 
    1950   -888275.48    252.45723    94.898021    3.2408325    174957.69    270795.27     412.0609    148721.67 
    1960   -888285.44    252.45723    94.898021    3.2408325    174858.73    270784.42    420.55135     148687.9 
    1970   -888295.26    252.45723    94.898021    3.2408325    174760.46    270773.17    433.52596    148655.72 
    1980   -888305.62    252.45723    94.898021    3.2408325    174660.59    270752.26    446.08878    148619.65 
    1990   -888316.36    252.45723    94.898021    3.2408325     174559.6    270730.46    456.02001    148582.03 
    2000   -888327.53    252.45723    94.898021    3.2408325    174454.87    270709.77    466.47643     148543.7 
    2010   -888338.99    252.45723    94.898021    3.2408325    174345.22    270695.49    462.70041    148501.14 
    2020   -888349.99    252.45723    94.898021    3.2408325    174233.52    270692.34    448.35697    148458.07 
    2030   -888360.18    252.45723    94.898021    3.2408325     174125.2     270697.9    437.30081    148420.14 
    2040   -888369.71    252.45723    94.898021    3.2408325    174030.12    270702.26    432.04629    148388.14 
    2050   -888379.32    252.45723    94.898021    3.2408325    173934.51    270700.77    428.86902    148354.72 
    2060   -888388.79    252.45723    94.898021    3.2408325    173842.73    270691.19    425.69602    148319.87 
    2070   -888398.03    252.45723    94.898021    3.2408325    173753.99    270671.62    429.26511    148284.96 
    2080   -888407.87    252.45723    94.898021    3.2408325    173665.91    270645.67    430.24504    148247.27 
    2090   -888417.61    252.45723    94.898021    3.2408325    173572.91    270617.64    439.48482    148210.01 
    2099   -888426.87    252.45723    94.898021    3.2408325    173485.46    270591.84    442.88188    148173.39 
Loop time of 87.619 on 16 procs for 2099 steps with 8280 atoms

99.7% CPU use with 16 MPI tasks x no OpenMP threads

Minimization stats:
  Stopping criterion = energy tolerance
  Energy initial, next-to-last, final = 
     -808378.656744382  -888426.225970822  -888426.872003138
  Force two-norm initial, final = 11615.659 134.27981
  Force max component initial, final = 184.35013 28.469506
  Final line search alpha, max atom move = 0.0000000 0.0000000
  Iterations, force evaluations = 2099 2099

MPI task timing breakdown:
Section |  min time  |  avg time  |  max time  |%varavg| %total
---------------------------------------------------------------
Pair    | 55.979     | 61.283     | 65.687     |  47.8 | 69.94
Neigh   | 0          | 0          | 0          |   0.0 |  0.00
Comm    | 0.12345    | 4.46       | 9.9369     | 177.4 |  5.09
Output  | 0.20551    | 0.20577    | 0.20701    |   0.1 |  0.23
Modify  | 21.018     | 21.228     | 21.862     |   5.5 | 24.23
Other   |            | 0.442      |            |       |  0.50

Nlocal:        517.500 ave         525 max         510 min
Histogram: 8 0 0 0 0 0 0 0 0 8
Nghost:        855.000 ave         885 max         840 min
Histogram: 4 8 0 0 0 0 0 0 0 4
Neighs:        48910.0 ave       49528 max       48282 min
Histogram: 8 0 0 0 0 0 0 0 0 8

Total # of neighbors = 782560
Ave neighs/atom = 94.512077
Neighbor list builds = 0
Dangerous builds = 0
WARNING: Using 'neigh_modify every 1 delay 0 check yes' setting during minimization (../min.cpp:188)
Setting up quickmin style minimization ...
  Unit style    : real
  Current step  : 2099
Per MPI rank memory allocation (min/avg/max) = 28.28 | 28.57 | 28.68 Mbytes
Step PotEng Lx Ly Lz Pxx Pyy Pzz Press 
    2099   -888426.87    252.45723    94.898021    3.5932266     156471.4    244054.37    399.69723    133641.82 
    2100   -888426.87    252.45723    94.898021    3.5932266    156435.65    244027.11    383.09674    133615.29 
    2105   -888427.07    252.45723    94.898021    3.5932266    156434.38    244027.67     382.3306    133614.79 
Loop time of 0.295602 on 16 procs for 6 steps with 8280 atoms

99.7% CPU use with 16 MPI tasks x no OpenMP threads

Minimization stats:
  Stopping criterion = energy tolerance
  Energy initial, next-to-last, final = 
     -888426.871582549  -888427.001528239  -888427.067197181
  Force two-norm initial, final = 134.62784 134.65489
  Force max component initial, final = 28.720495 28.740706
  Final line search alpha, max atom move = 0.0000000 0.0000000
  Iterations, force evaluations = 6 6

MPI task timing breakdown:
Section |  min time  |  avg time  |  max time  |%varavg| %total
---------------------------------------------------------------
Pair    | 0.18395    | 0.20094    | 0.21549    |   2.8 | 67.98
Neigh   | 0          | 0          | 0          |   0.0 |  0.00
Comm    | 0.00034345 | 0.014313   | 0.031027   |  10.6 |  4.84
Output  | 0.00064717 | 0.00064888 | 0.00065191 |   0.0 |  0.22
Modify  | 0.076029   | 0.076625   | 0.077336   |   0.2 | 25.92
Other   |            | 0.003074   |            |       |  1.04

Nlocal:        517.500 ave         527 max         510 min
Histogram: 8 0 0 0 0 0 0 1 6 1
Nghost:        852.125 ave         885 max         824 min
Histogram: 8 0 0 0 0 0 2 0 0 6
Neighs:        49471.8 ave       50231 max       48774 min
Histogram: 8 0 0 0 0 0 0 1 1 6

Total # of neighbors = 791548
Ave neighs/atom = 95.597585
Neighbor list builds = 0
Dangerous builds = 0
Total wall time: 0:01:36
