Pristine 2H-MoS2

6 atoms 
2  atom types
0.0      5.518434938996192  xlo xhi
0.0      3.1860455077465324  ylo yhi
0.0                      20  zlo zhi

Atoms 

1   1   0.0     0.00000000000   0.0000000000   9.9986014964060761
2   1   0.0     2.75651794916   1.5947210896   9.9951533751190329
3   2  -0.0     0.91337439804   1.5976686133   8.4066210583906056
4   2  -0.0     3.69101259491   3.1860291192   8.4029480183138556
5   2  -0.0     0.91805453573   1.5937352533   11.59045505365887
6   2  -0.0     3.68366127942   0.0047845483   11.587038018449483
