LAMMPS (29 Sep 2021 - Update 3)
# small W unit cell for use with VASP

variable        mode index file

if "${mode} == file" then   "message client md file tmp.couple" elif "${mode} == zmq"   "message client md zmq localhost:5555"
message client md file tmp.couple
variable	x index 1
variable	y index 1
variable	z index 1

units		metal
atom_style	atomic
atom_modify     sort 0 0.0 map yes

read_data       data.W
Reading data file ...
  orthogonal box = (0.0000000 0.0000000 0.0000000) to (5.4687276 5.4687276 5.4687276)
  1 by 1 by 1 MPI processor grid
  reading atoms ...
  8 atoms
  read_data CPU = 0.001 seconds
mass		1 28.0855

replicate       $x $y $z
replicate       1 $y $z
replicate       1 1 $z
replicate       1 1 1
Replicating atoms ...
  orthogonal box = (0.0000000 0.0000000 0.0000000) to (5.4687276 5.4687276 5.4687276)
  1 by 1 by 1 MPI processor grid
  8 atoms
  replicate CPU = 0.001 seconds

velocity	all create 300.0 87287 loop geom

neighbor	0.3 bin
neigh_modify	delay 0 every 10 check no

fix		1 all nve
fix             2 all client/md
fix_modify      2 energy yes

thermo          1
dump dheating all atom 1 trj-heating.lammpstrj
run		4000
WARNING: Communication cutoff is 0.0. No ghost atoms will be generated. Atoms may get lost. (../comm_brick.cpp:209)
Per MPI rank memory allocation (min/avg/max) = 2.801 | 2.801 | 2.801 Mbytes
Step Temp E_pair E_mol TotEng Press 
       0          300            0            0   -43.012034    2789.7766 
       1    298.89886            0            0   -43.012032    2819.3884 
       2    295.62615            0            0   -43.012028    2828.6761 
       3    290.27129            0            0   -43.012022    2836.6894 
       4    282.97704            0            0   -43.012012    2844.4081 
       5    273.93504            0            0   -43.011996    2852.2451 
       6    263.38144            0            0   -43.011982    2857.9736 
       7    251.58878            0            0   -43.011964    2860.4932 
       8    238.85747            0            0   -43.011948    2857.1091 
       9    225.50721            0            0   -43.011926    2846.6477 
      10    211.86721            0            0     -43.0119    2826.0247 
      11    198.26783            0            0   -43.011876    2773.7154 
      12    185.02906            0            0   -43.011851    2726.5231 
      13    172.45121            0            0   -43.011824    2663.8859 
      14    160.80772            0            0   -43.011789     2584.245 
      15    150.33724            0            0   -43.011764    2486.1791 
      16    141.23746            0            0   -43.011749    2369.4246 
      17    133.65967            0            0   -43.011737    2233.7452 
      18     127.7055            0            0   -43.011737    2079.0637 
      19    123.42542            0            0   -43.011744    1906.1175 
      20    120.81829            0            0   -43.011748    1715.6476 
      21    119.83275            0            0   -43.011768    1508.6961 
      22    120.36996            0            0   -43.011787    1286.2596 
      23    122.28767            0            0    -43.01181    1050.7145 
      24    125.40553            0            0   -43.011832    803.56741 
      25     129.5115            0            0   -43.011848     547.0068 
      26    134.36942            0            0   -43.011869    283.36501 
      27    139.72713            0            0   -43.011876    15.422548 
      28    145.32447            0            0   -43.011896   -236.77418 
      29    150.90033            0            0   -43.011915   -506.28429 
      30    156.20198            0            0   -43.011918   -772.47602 
      31     160.9922            0            0   -43.011935    -1032.377 
      32    165.05533            0            0   -43.011945   -1285.5856 
      33    168.20564            0            0   -43.011946   -1528.9303 
      34     170.2898            0            0   -43.011953   -1760.3542 
      35    171.19098            0            0   -43.011957   -1979.2398 
      36    170.83054            0            0   -43.011956   -2183.7104 
      37    169.16966            0            0   -43.011954   -2373.7967 
      38     166.2096            0            0   -43.011951   -2548.6667 
      39     161.9889            0            0   -43.011945   -2708.0743 
      40    156.58129            0            0   -43.011942   -2852.0808 
      41    150.09101            0            0   -43.011928   -2981.0147 
      42    142.65142            0            0    -43.01192   -3095.3154 
      43    134.41861            0            0   -43.011909   -3195.6577 
      44    125.56389            0            0   -43.011899   -3282.8025 
      45     116.2707            0            0   -43.011884   -3357.8338 
      46    106.72828            0            0    -43.01188   -3421.4408 
      47     97.12657            0            0    -43.01187   -3475.0506 
      48    87.651609            0            0   -43.011861   -3519.5938 
      49    78.480074            0            0    -43.01185   -3556.1379 
      50    69.776198            0            0   -43.011847   -3585.4016 
      51    61.688876            0            0   -43.011843   -3608.9552 
      52    54.348253            0            0   -43.011828   -3626.8575 
      53    47.865612            0            0   -43.011831   -3640.4728 
      54    42.331787            0            0   -43.011816   -3650.1811 
      55    37.817048            0            0   -43.011818   -3656.3812 
      56    34.370999            0            0   -43.011814   -3659.3049 
      57    32.021957            0            0    -43.01181   -3659.8147 
      58    30.778746            0            0   -43.011814   -3657.0845 
      59    30.633144            0            0   -43.011825   -3651.5937 
      60    31.559385            0            0   -43.011825   -3642.7926 
      61    33.514667            0            0   -43.011829   -3630.9348 
      62    36.442229            0            0   -43.011838   -3614.9975 
      63    40.272562            0            0   -43.011828   -3595.2378 
      64     44.92426            0            0   -43.011839   -3570.6193 
      65    50.306183            0            0   -43.011849   -3540.2299 
      66    56.319929            0            0   -43.011846   -3503.8037 
      67    62.860238            0            0   -43.011865   -3460.0752 
      68    69.818043            0            0   -43.011866   -3408.7576 
      69    77.083102            0            0   -43.011865   -3348.4181 
      70     84.54547            0            0   -43.011876   -3278.7944 
      71     92.09779            0            0    -43.01188   -3199.4376 
      72    99.637714            0            0   -43.011884   -3108.9392 
      73    107.07031            0            0   -43.011887   -3006.6779 
      74    114.30854            0            0    -43.01189   -2892.9878 
      75    121.27593            0            0   -43.011902   -2766.7324 
      76    127.90832            0            0   -43.011897   -2628.0803 
      77    134.15381            0            0   -43.011906   -2477.4161 
      78    139.97338            0            0   -43.011903   -2314.4435 
      79     145.3409            0            0   -43.011905   -2139.4581 
      80    150.24247            0            0   -43.011915   -1953.4647 
      81    154.67698            0            0   -43.011908   -1757.9102 
      82    158.65376            0            0   -43.011902   -1552.9645 
      83    162.19067            0            0   -43.011905   -1340.0277 
      84    165.31427            0            0   -43.011905   -1120.6866 
      85    168.05709            0            0   -43.011899   -895.74809 
      86    170.45624            0            0   -43.011896   -666.33357 
      87     172.5515            0            0   -43.011901   -434.66904 
      88    174.38377            0            0   -43.011899    -202.3669 
      89     175.9929            0            0   -43.011898    29.519086 
      90    177.41671            0            0   -43.011895     259.2009 
      91    178.69047            0            0     -43.0119    484.82341 
      92    179.84494            0            0   -43.011897    706.15368 
      93    180.90712            0            0   -43.011906    904.29824 
      94    181.89836            0            0   -43.011905    1112.4247 
      95    182.83459            0            0     -43.0119    1312.3765 
      96     183.7286            0            0     -43.0119    1503.8543 
      97    184.58962            0            0   -43.011896    1686.3629 
      98     185.4248            0            0   -43.011905    1859.0463 
      99    186.24147            0            0   -43.011902    2022.1808 
     100    187.04754            0            0   -43.011897    2176.1669 
     101    187.85347            0            0   -43.011902     2320.468 
     102    188.67447            0            0   -43.011903    2454.2381 
     103    189.52995            0            0   -43.011902    2579.3555 
     104    190.44549            0            0   -43.011901      2694.29 
     105     191.4527            0            0   -43.011892    2799.3872 
     106    192.58876            0            0   -43.011886    2894.9456 
     107    193.89556            0            0   -43.011884    2980.7919 
     108    195.41773            0            0    -43.01188    3056.1554 
     109    197.20077            0            0   -43.011875    3142.2911 
     110     199.2866            0            0   -43.011875    3196.6183 
     111    201.71015            0            0   -43.011878    3239.9579 
     112    204.49682            0            0   -43.011873    3271.8115 
     113    207.65896            0            0   -43.011866     3292.222 
     114    211.19104            0            0   -43.011869     3300.372 
     115    215.06824            0            0   -43.011867    3296.7963 
     116    219.24446            0            0   -43.011873    3281.0949 
     117    223.65062            0            0    -43.01189    3252.4541 
     118    228.19711            0            0   -43.011884    3211.9779 
     119    232.77322            0            0   -43.011903    3160.1489 
     120    237.24941            0            0   -43.011906     3097.632 
     121    241.48353            0            0   -43.011911    3024.4837 
     122    245.32336            0            0   -43.011926    2941.3496 
     123    248.61352            0            0   -43.011929    2849.5175 
     124    251.20165            0            0   -43.011941    2749.5456 
     125    252.94313            0            0   -43.011943    2642.2891 
     126     253.7096            0            0   -43.011946      2528.99 
     127    253.39315            0            0   -43.011959    2410.2899 
     128    251.91134            0            0   -43.011966    2287.1542 
     129    249.21184            0            0   -43.011967    2160.1556 
     130    245.27493            0            0   -43.011967    2029.4017 
     131    240.11446            0            0   -43.011964     1894.579 
     132    233.77791            0            0   -43.011958    1755.7981 
     133      226.347            0            0   -43.011953    1612.5739 
     134    217.93414            0            0   -43.011949    1446.4748 
     135    208.67641            0            0    -43.01193    1294.0444 
     136    198.73319            0            0   -43.011921    1136.5698 
     137     188.2816            0            0   -43.011915    974.60469 
     138    177.50902            0            0   -43.011901    807.42759 
     139    166.60877            0            0   -43.011889    634.88614 
     140    155.77362            0            0    -43.01187    457.01441 
     141    145.19069            0            0   -43.011866     273.5876 
     142    135.03619            0            0   -43.011851    84.877323 
     143    125.46971            0            0   -43.011828   -108.39036 
     144    116.63267            0            0   -43.011823   -305.82625 
     145    108.64437