 vasp.5.4.4.18Apr17-6-g9f103f2a35 (build Sep 16 2021 13:51:27) complex          
  
 executed on             LinuxIFC date 2023.03.16  12:57:39
 running on   24 total cores
 distrk:  each k-point on   24 cores,    1 groups
 distr:  one band on NCORES_PER_BAND=  24 cores,    1 groups


--------------------------------------------------------------------------------------------------------


 INCAR:
 POTCAR:    PAW_PBE Sn 08Apr2002                  
 POTCAR:    PAW_PBE Se 06Sep2000                  

 ----------------------------------------------------------------------------- 
|                                                                             |
|           W    W    AA    RRRRR   N    N  II  N    N   GGGG   !!!           |
|           W    W   A  A   R    R  NN   N  II  NN   N  G    G  !!!           |
|           W    W  A    A  R    R  N N  N  II  N N  N  G       !!!           |
|           W WW W  AAAAAA  RRRRR   N  N N  II  N  N N  G  GGG   !            |
|           WW  WW  A    A  R   R   N   NN  II  N   NN  G    G                |
|           W    W  A    A  R    R  N    N  II  N    N   GGGG   !!!           |
|                                                                             |
|      For optimal performance we recommend to set                            |
|        NCORE= 4 - approx SQRT( number of cores)                             |
|      NCORE specifies how many cores store one orbital (NPAR=cpu/NCORE).     |
|      This setting can  greatly improve the performance of VASP for DFT.     |
|      The default,   NCORE=1            might be grossly inefficient         |
|      on modern multi-core architectures or massively parallel machines.     |
|      Do your own testing !!!!                                               |
|      Unfortunately you need to use the default for GW and RPA calculations. |
|      (for HF NCORE is supported but not extensively tested yet)             |
|                                                                             |
 ----------------------------------------------------------------------------- 

 POTCAR:    PAW_PBE Sn 08Apr2002                  
   VRHFIN =Sn: s2p2                                                             
   LEXCH  = PE                                                                  
   EATOM  =    94.0860 eV,    6.9151 Ry                                         
                                                                                
   TITEL  = PAW_PBE Sn 08Apr2002                                                
   LULTRA =        F    use ultrasoft PP ?                                      
   IUNSCR =        1    unscreen: 0-lin 1-nonlin 2-no                           
   RPACOR =    2.000    partial core radius                                     
   POMASS =  118.710; ZVAL   =    4.000    mass and valenz                      
   RCORE  =    3.000    outmost cutoff radius                                   
   RWIGS  =    2.960; RWIGS  =    1.566    wigner-seitz radius (au A)           
   ENMAX  =  103.236; ENMIN  =   77.427 eV                                      
   ICORE  =        3    local potential                                         
   LCOR   =        T    correct aug charges                                     
   LPAW   =        T    paw PP                                                  
   EAUG   =  263.585                                                            
   DEXC   =    0.000                                                            
   RMAX   =    3.078    core radius for proj-oper                               
   RAUG   =    1.300    factor for augmentation sphere                          
   RDEP   =    3.022    radius for radial grids                                 
   RDEPT  =    2.655    core radius for aug-charge                              
                                                                                
   Atomic configuration                                                         
   13 entries                                                                   
     n  l   j            E        occ.                                          
     1  0  0.50    -29007.2859   2.0000                                         
     2  0  0.50     -4378.8056   2.0000                                         
     2  1  1.50     -3930.4293   6.0000                                         
     3  0  0.50      -845.0264   2.0000                                         
     3  1  1.50      -698.5725   6.0000                                         
     3  2  2.50      -473.2839  10.0000                                         
     4  0  0.50      -133.9036   2.0000                                         
     4  1  1.50       -89.6752   6.0000                                         
     4  2  2.50       -25.8375  10.0000                                         
     5  0  0.50       -10.5484   2.0000                                         
     5  1  0.50        -3.6940   2.0000                                         
     5  2  1.50        -1.3606   0.0000                                         
     4  3  2.50        -4.0817   0.0000                                         
   Description                                                                  
     l       E           TYP  RCUT    TYP  RCUT                                 
     0    -10.5483727     23  3.000                                             
     0     27.2116520     23  3.000                                             
     1     -3.6939829     23  3.000                                             
     1      1.9821976     23  3.000                                             
     2     -1.3605826     23  3.000                                             
     3     -2.7211652     23  3.000                                             
  local pseudopotential read in
  partial core-charges read in
  partial kinetic energy density read in
  atomic valenz-charges read in
  non local Contribution for L=           0  read in
    real space projection operators read in
  non local Contribution for L=           0  read in
    real space projection operators read in
  non local Contribution for L=           1  read in
    real space projection operators read in
  non local Contribution for L=           1  read in
    real space projection operators read in
  non local Contribution for L=           2  read in
    real space projection operators read in
    PAW grid and wavefunctions read in
 
   number of l-projection  operators is LMAX  =           5
   number of lm-projection operators is LMMAX =          13
 
 POTCAR:    PAW_PBE Se 06Sep2000                  
   VRHFIN =Se: s2p4                                                             
   LEXCH  = PE                                                                  
   EATOM  =   257.1286 eV,   18.8984 Ry                                         
                                                                                
   TITEL  = PAW_PBE Se 06Sep2000                                                
   LULTRA =        F    use ultrasoft PP ?                                      
   IUNSCR =        1    unscreen: 0-lin 1-nonlin 2-no                           
   RPACOR =    1.900    partial core radius                                     
   POMASS =   78.960; ZVAL   =    6.000    mass and valenz                      
   RCORE  =    2.100    outmost cutoff radius                                   
   RWIGS  =    2.200; RWIGS  =    1.164    wigner-seitz radius (au A)           
   ENMAX  =  211.555; ENMIN  =  158.666 eV                                      
   ICORE  =        3    local potential                                         
   LCOR   =        T    correct aug charges                                     
   LPAW   =        T    paw PP                                                  
   EAUG   =  446.842                                                            
   DEXC   =    0.000                                                            
   RMAX   =    2.147    core radius for proj-oper                               
   RAUG   =    1.300    factor for augmentation sphere                          
   RDEP   =    2.177    radius for radial grids                                 
   RDEPT  =    1.928    core radius for aug-charge                              
                                                                                
   Atomic configuration                                                         
   10 entries                                                                   
     n  l   j            E        occ.                                          
     1  0  0.50    -12503.4787   2.0000                                         
     2  0  0.50     -1606.9547   2.0000                                         
     2  1  1.50     -1413.3140   6.0000                                         
     3  0  0.50      -213.4885   2.0000                                         
     3  1  1.50      -152.9538   6.0000                                         
     3  2  2.50       -53.1221  10.0000                                         
     4  0  0.50       -17.2865   2.0000                                         
     4  1  0.50        -6.5110   4.0000                                         
     4  2  2.50        -6.8029   0.0000                                         
     4  3  2.50        -6.8029   0.0000                                         
   Description                                                                  
     l       E           TYP  RCUT    TYP  RCUT                                 
     0    -17.2865377     23  2.100                                             
     0    -15.3094411     23  2.100                                             
     1     -6.5110275     23  2.100                                             
     1     -0.0695192     23  2.100                                             
     2     -6.8029130     23  2.100                                             
     3     -1.3605826      7  2.100                                             
  local pseudopotential read in
  partial core-charges read in
  partial kinetic energy density read in
  atomic valenz-charges read in
  non local Contribution for L=           0  read in
    real space projection operators read in
  non local Contribution for L=           0  read in
    real space projection operators read in
  non local Contribution for L=           1  read in
    real space projection operators read in
  non local Contribution for L=           1  read in
    real space projection operators read in
  non local Contribution for L=           2  read in
    real space projection operators read in
    PAW grid and wavefunctions read in
 
   number of l-projection  operators is LMAX  =           5
   number of lm-projection operators is LMMAX =          13
 
 WARNING: PSMAXN for non-local potential too small
          PSMAXN should be >   12.5490833729506       NTYP=           1
  PAW_PBE Sn 08Apr2002                  :
 energy of atom  1       EATOM=  -94.0860
 kinetic energy error for atom=    0.0000 (will be added to EATOM!!)
  PAW_PBE Se 06Sep2000                  :
 energy of atom  2       EATOM= -257.1286
 kinetic energy error for atom=    0.0006 (will be added to EATOM!!)
 
 
 POSCAR:  POSCAR with strain of 0.005            
  positions in direct lattice
  No initial velocities read in
 exchange correlation table for  LEXCH =        8
   RHO(1)=    0.500       N(1)  =     2000
   RHO(2)=  100.500       N(2)  =     4000
 


--------------------------------------------------------------------------------------------------------


 ion  position               nearest neighbor table
   1  0.581  0.750  0.569-   4 2.72   3 2.93   3 2.93   3 3.23   3 3.23
   2  0.081  0.250  0.431-   3 2.72   4 2.93   4 2.93   4 3.23   4 3.23
   3  0.033  0.250  0.567-   2 2.72   1 2.93   1 2.93   1 3.23   1 3.23
   4  0.533  0.750  0.433-   1 2.72   2 2.93   2 2.93   2 3.23   2 3.23
 

IMPORTANT INFORMATION: All symmetrisations will be switched off!
NOSYMM: (Re-)initialisation of all symmetry stuff for point group C_1.

 
 
 KPOINTS: KMesh Grid                              

Automatic generation of k-mesh.
Space group operators:
 irot       det(A)        alpha          n_x          n_y          n_z        tau_x        tau_y        tau_z
    1     1.000000     0.000000     1.000000     0.000000     0.000000     0.000000     0.000000     0.000000
 
 Subroutine IBZKPT returns following result:
 ===========================================
 
 Found    113 irreducible k-points:
 
 Following reciprocal coordinates:
            Coordinates               Weight
  0.000000  0.000000  0.000000      1.000000
  0.066667  0.000000  0.000000      2.000000
  0.133333  0.000000  0.000000      2.000000
  0.200000  0.000000  0.000000      2.000000
  0.266667  0.000000  0.000000      2.000000
  0.333333  0.000000  0.000000      2.000000
  0.400000  0.000000  0.000000      2.000000
  0.466667  0.000000  0.000000      2.000000
  0.000000  0.066667  0.000000      2.000000
  0.066667  0.066667  0.000000      2.000000
  0.133333  0.066667  0.000000      2.000000
  0.200000  0.066667  0.000000      2.000000
  0.266667  0.066667  0.000000      2.000000
  0.333333  0.066667  0.000000      2.000000
  0.400000  0.066667  0.000000      2.000000
  0.466667  0.066667  0.000000      2.000000
 -0.466667  0.066667  0.000000      2.000000
 -0.400000  0.066667  0.000000      2.000000
 -0.333333  0.066667  0.000000      2.000000
 -0.266667  0.066667  0.000000      2.000000
 -0.200000  0.066667  0.000000      2.000000
 -0.133333  0.066667  0.000000      2.000000
 -0.066667  0.066667  0.000000      2.000000
  0.000000  0.133333  0.000000      2.000000
  0.066667  0.133333  0.000000      2.000000
  0.133333  0.133333  0.000000      2.000000
  0.200000  0.133333  0.000000      2.000000
  0.266667  0.133333  0.000000      2.000000
  0.333333  0.133333  0.000000      2.000000
  0.400000  0.133333  0.000000      2.000000
  0.466667  0.133333  0.000000      2.000000
 -0.466667  0.133333  0.000000      2.000000
 -0.400000  0.133333  0.000000      2.000000
 -0.333333  0.133333  0.000000      2.000000
 -0.266667  0.133333  0.000000      2.000000
 -0.200000  0.133333  0.000000      2.000000
 -0.133333  0.133333  0.000000      2.000000
 -0.066667  0.133333  0.000000      2.000000
  0.000000  0.200000  0.000000      2.000000
  0.066667  0.200000  0.000000      2.000000
  0.133333  0.200000  0.000000      2.000000
  0.200000  0.200000  0.000000      2.000000
  0.266667  0.200000  0.000000      2.000000
  0.333333  0.200000  0.000000      2.000000
  0.400000  0.200000  0.000000      2.000000
  0.466667  0.200000  0.000000      2.000000
 -0.466667  0.200000  0.000000      2.000000
 -0.400000  0.200000  0.000000      2.000000
 -0.333333  0.200000  0.000000      2.000000
 -0.266667  0.200000  0.000000      2.000000
 -0.200000  0.200000  0.000000      2.000000
 -0.133333  0.200000  0.000000      2.000000
 -0.066667  0.200000  0.000000      2.000000
  0.000000  0.266667  0.000000      2.000000
  0.066667  0.266667  0.000000      2.000000
  0.133333  0.266667  0.000000      2.000000
  0.200000  0.266667  0.000000      2.000000
  0.266667  0.266667  0.000000      2.000000
  0.333333  0.266667  0.000000      2.000000
  0.400000  0.266667  0.000000      2.000000
  0.466667  0.266667  0.000000      2.000000
 -0.466667  0.266667  0.000000      2.000000
 -0.400000  0.266667  0.000000      2.000000
 -0.333333  0.266667  0.000000      2.000000
 -0.266667  0.266667  0.000000      2.000000
 -0.200000  0.266667  0.000000      2.000000
 -0.133333  0.266667  0.000000      2.000000
 -0.066667  0.266667  0.000000      2.000000
  0.000000  0.333333  0.000000      2.000000
  0.066667  0.333333  0.000000      2.000000
  0.133333  0.333333  0.000000      2.000000
  0.200000  0.333333  0.000000      2.000000
  0.266667  0.333333  0.000000      2.000000
  0.333333  0.333333  0.000000      2.000000
  0.400000  0.333333  0.000000      2.000000
  0.466667  0.333333  0.000000      2.000000
 -0.466667  0.333333  0.000000      2.000000
 -0.400000  0.333333  0.000000      2.000000
 -0.333333  0.333333  0.000000      2.000000
 -0.266667  0.333333  0.000000      2.000000
 -0.200000  0.333333  0.000000      2.000000
 -0.133333  0.333333  0.000000      2.000000
 -0.066667  0.333333  0.000000      2.000000
  0.000000  0.400000  0.000000      2.000000
  0.066667  0.400000  0.000000      2.000000
  0.133333  0.400000  0.000000      2.000000
  0.200000  0.400000  0.000000      2.000000
  0.266667  0.400000  0.000000      2.000000
  0.333333  0.400000  0.000000      2.000000
  0.400000  0.400000  0.000000      2.000000
  0.466667  0.400000  0.000000      2.000000
 -0.466667  0.400000  0.000000      2.000000
 -0.400000  0.400000  0.000000      2.000000
 -0.333333  0.400000  0.000000      2.000000
 -0.266667  0.400000  0.000000      2.000000
 -0.200000  0.400000  0.000000      2.000000
 -0.133333  0.400000  0.000000      2.000000
 -0.066667  0.400000  0.000000      2.000000
  0.000000  0.466667  0.000000      2.000000
  0.066667  0.466667  0.000000      2.000000
  0.133333  0.466667  0.000000      2.000000
  0.200000  0.466667  0.000000      2.000000
  0.266667  0.466667  0.000000      2.000000
  0.333333  0.466667  0.000000      2.000000
  0.400000  0.466667  0.000000      2.000000
  0.466667  0.466667  0.000000      2.000000
 -0.466667  0.466667  0.000000      2.000000
 -0.400000  0.466667  0.000000      2.000000
 -0.333333  0.466667  0.000000      2.000000
 -0.266667  0.466667  0.000000      2.000000
 -0.200000  0.466667  0.000000      2.000000
 -0.133333  0.466667  0.000000      2.000000
 -0.066667  0.466667  0.000000      2.000000
 
 Following cartesian coordinates:
            Coordinates               Weight
  0.000000  0.000000  0.000000      1.000000
  0.015137  0.000000  0.000000      2.000000
  0.030274  0.000000  0.000000      2.000000
  0.045410  0.000000  0.000000      2.000000
  0.060547  0.000000  0.000000      2.000000
  0.075684  0.000000  0.000000      2.000000
  0.090821  0.000000  0.000000      2.000000
  0.105958  0.000000  0.000000      2.000000
  0.000000  0.015531  0.000000      2.000000
  0.015137  0.015531  0.000000      2.000000
  0.030274  0.015531  0.000000      2.000000
  0.045410  0.015531  0.000000      2.000000
  0.060547  0.015531  0.000000      2.000000
  0.075684  0.015531  0.000000      2.000000
  0.090821  0.015531  0.000000      2.000000
  0.105958  0.015531  0.000000      2.000000
 -0.105958  0.015531  0.000000      2.000000
 -0.090821  0.015531  0.000000      2.000000
 -0.075684  0.015531  0.000000      2.000000
 -0.060547  0.015531  0.000000      2.000000
 -0.045410  0.015531  0.000000      2.000000
 -0.030274  0.015531  0.000000      2.000000
 -0.015137  0.015531  0.000000      2.000000
  0.000000  0.031062  0.000000      2.000000
  0.015137  0.031062  0.000000      2.000000
  0.030274  0.031062  0.000000      2.000000
  0.045410  0.031062  0.000000      2.000000
  0.060547  0.031062  0.000000      2.000000
  0.075684  0.031062  0.000000      2.000000
  0.090821  0.031062  0.000000      2.000000
  0.105958  0.031062  0.000000      2.000000
 -0.105958  0.031062  0.000000      2.000000
 -0.090821  0.031062  0.000000      2.000000
 -0.075684  0.031062  0.000000      2.000000
 -0.060547  0.031062  0.000000      2.000000
 -0.045410  0.031062  0.000000      2.000000
 -0.030274  0.031062  0.000000      2.000000
 -0.015137  0.031062  0.000000      2.000000
  0.000000  0.046593  0.000000      2.000000
  0.015137  0.046593  0.000000      2.000000
  0.030274  0.046593  0.000000      2.000000
  0.045410  0.046593  0.000000      2.000000
  0.060547  0.046593  0.000000      2.000000
  0.075684  0.046593  0.000000      2.000000
  0.090821  0.046593  0.000000      2.000000
  0.105958  0.046593  0.000000      2.000000
 -0.105958  0.046593  0.000000      2.000000
 -0.090821  0.046593  0.000000      2.000000
 -0.075684  0.046593  0.000000      2.000000
 -0.060547  0.046593  0.000000      2.000000
 -0.045410  0.046593  0.000000      2.000000
 -0.030274  0.046593  0.000000      2.000000
 -0.015137  0.046593  0.000000      2.000000
  0.000000  0.062124  0.000000      2.000000
  0.015137  0.062124  0.000000      2.000000
  0.030274  0.062124  0.000000      2.000000
  0.045410  0.062124  0.000000      2.000000
  0.060547  0.062124  0.000000      2.000000
  0.075684  0.062124  0.000000      2.000000
  0.090821  0.062124  0.000000      2.000000
  0.105958  0.062124  0.000000      2.000000
 -0.105958  0.062124  0.000000      2.000000
 -0.090821  0.062124  0.000000      2.000000
 -0.075684  0.062124  0.000000      2.000000
 -0.060547  0.062124  0.000000      2.000000
 -0.045410  0.062124  0.000000      2.000000
 -0.030274  0.062124  0.000000      2.000000
 -0.015137  0.062124  0.000000      2.000000
  0.000000  0.077655  0.000000      2.000000
  0.015137  0.077655  0.000000      2.000000
  0.030274  0.077655  0.000000      2.000000
  0.045410  0.077655  0.000000      2.000000
  0.060547  0.077655  0.000000      2.000000
  0.075684  0.077655  0.000000      2.000000
  0.090821  0.077655  0.000000      2.000000
  0.105958  0.077655  0.000000      2.000000
 -0.105958  0.077655  0.000000      2.000000
 -0.090821  0.077655  0.000000      2.000000
 -0.075684  0.077655  0.000000      2.000000
 -0.060547  0.077655  0.000000      2.000000
 -0.045410  0.077655  0.000000      2.000000
 -0.030274  0.077655  0.000000      2.000000
 -0.015137  0.077655  0.000000      2.000000
  0.000000  0.093186  0.000000      2.000000
  0.015137  0.093186  0.000000      2.000000
  0.030274  0.093186  0.000000      2.000000
  0.045410  0.093186  0.000000      2.000000
  0.060547  0.093186  0.000000      2.000000
  0.075684  0.093186  0.000000      2.000000
  0.090821  0.093186  0.000000      2.000000
  0.105958  0.093186  0.000000      2.000000
 -0.105958  0.093186  0.000000      2.000000
 -0.090821  0.093186  0.000000      2.000000
 -0.075684  0.093186  0.000000      2.000000
 -0.060547  0.093186  0.000000      2.000000
 -0.045410  0.093186  0.000000      2.000000
 -0.030274  0.093186  0.000000      2.000000
 -0.015137  0.093186  0.000000      2.000000
  0.000000  0.108717  0.000000      2.000000
  0.015137  0.108717  0.000000      2.000000
  0.030274  0.108717  0.000000      2.000000
  0.045410  0.108717  0.000000      2.000000
  0.060547  0.108717  0.000000      2.000000
  0.075684  0.108717  0.000000      2.000000
  0.090821  0.108717  0.000000      2.000000
  0.105958  0.108717  0.000000      2.000000
 -0.105958  0.108717  0.000000      2.000000
 -0.090821  0.108717  0.000000      2.000000
 -0.075684  0.108717  0.000000      2.000000
 -0.060547  0.108717  0.000000      2.000000
 -0.045410  0.108717  0.000000      2.000000
 -0.030274  0.108717  0.000000      2.000000
 -0.015137  0.108717  0.000000      2.000000
 


--------------------------------------------------------------------------------------------------------




 Dimension of arrays:
   k-points           NKPTS =    113   k-points in BZ     NKDIM =    113   number of bands    NBANDS=     14
   number of dos      NEDOS =    301   number of ions     NIONS =      4
   non local maximal  LDIM  =      5   non local SUM 2l+1 LMDIM =     13
   total plane-waves  NPLWV = 207360
   max r-space proj   IRMAX =      1   max aug-charges    IRDMAX=  52983
   dimension x,y,z NGX =    36 NGY =   36 NGZ =  160
   dimension x,y,z NGXF=    72 NGYF=   72 NGZF=  320
   support grid    NGXF=    72 NGYF=   72 NGZF=  320
   ions per type =               2   2
   NGX,Y,Z   is equivalent  to a cutoff of  13.59, 13.94, 13.30 a.u.
   NGXF,Y,Z  is equivalent  to a cutoff of  27.18, 27.89, 26.60 a.u.

 SYSTEM =  SnSe                                    
 POSCAR =   POSCAR with strain of 0.005            

 Startparameter for this run:
   NWRITE =      2    write-flag & timer
   PREC   = accura    normal or accurate (medium, high low for compatibility)
   ISTART =      0    job   : 0-new  1-cont  2-samecut
   ICHARG =      2    charge: 1-file 2-atom 10-const
   ISPIN  =      1    spin polarized calculation?
   LNONCOLLINEAR =      F non collinear calculations
   LSORBIT =      F    spin-orbit coupling
   INIWAV =      1    electr: 0-lowe 1-rand  2-diag
   LASPH  =      F    aspherical Exc in radial PAW
   METAGGA=      F    non-selfconsistent MetaGGA calc.

 Electronic Relaxation 1
   ENCUT  =  600.0 eV  44.10 Ry    6.64 a.u.   8.80  8.57 39.94*2*pi/ulx,y,z
   ENINI  =  600.0     initial cutoff
   ENAUG  =  446.8 eV  augmentation charge cutoff
   NELM   =     60;   NELMIN=  2; NELMDL= -5     # of ELM steps 
   EDIFF  = 0.1E-05   stopping-criterion for ELM
   LREAL  =      F    real-space projection
   NLSPLINE    = F    spline interpolate recip. space projectors
   LCOMPAT=      F    compatible to vasp.4.4
   GGA_COMPAT  = T    GGA compatible to vasp.4.4-vasp.4.6
   LMAXPAW     = -100 max onsite density
   LMAXMIX     =    2 max onsite mixed and CHGCAR
   VOSKOWN=      0    Vosko Wilk Nusair interpolation
   ROPT   =    0.00000   0.00000
 Ionic relaxation
   EDIFFG = -.1E-02   stopping-criterion for IOM
   NSW    =    100    number of steps for IOM
   NBLOCK =      1;   KBLOCK =    100    inner block; outer block 
   IBRION =      2    ionic relax: 0-MD 1-quasi-New 2-CG
   NFREE  =      1    steps in history (QN), initial steepest desc. (CG)
   ISIF   =      2    stress and relaxation
   IWAVPR =     11    prediction:  0-non 1-charg 2-wave 3-comb
   ISYM   =      0    0-nonsym 1-usesym 2-fastsym
   LCORR  =      T    Harris-Foulkes like correction to forces

   POTIM  = 0.5000    time-step for ionic-motion
   TEIN   =    0.0    initial temperature
   TEBEG  =    0.0;   TEEND  =   0.0 temperature during run
   SMASS  =  -3.00    Nose mass-parameter (am)
   estimated Nose-frequenzy (Omega)   =  0.10E-29 period in steps =****** mass=  -0.443E-27a.u.
   SCALEE = 1.0000    scale energy and forces
   NPACO  =    256;   APACO  = 16.0  distance and # of slots for P.C.
   PSTRESS=    0.0 pullay stress

  Mass of Ions in am
   POMASS = 118.71 78.96
  Ionic Valenz
   ZVAL   =   4.00  6.00
  Atomic Wigner-Seitz radii
   RWIGS  =  -1.00 -1.00
  virtual crystal weights 
   VCA    =   1.00  1.00
   NELECT =      20.0000    total number of electrons
   NUPDOWN=      -1.0000    fix difference up-down

 DOS related values:
   EMIN   =  10.00;   EMAX   =-10.00  energy-range for DOS
   EFERMI =   0.00
   ISMEAR =     0;   SIGMA  =   0.10  broadening in eV -4-tet -1-fermi 0-gaus

 Electronic relaxation 2 (details)
   IALGO  =     38    algorithm
   LDIAG  =      T    sub-space diagonalisation (order eigenvalues)
   LSUBROT=      F    optimize rotation matrix (better conditioning)
   TURBO    =      0    0=normal 1=particle mesh
   IRESTART =      0    0=no restart 2=restart with 2 vectors
   NREBOOT  =      0    no. of reboots
   NMIN     =      0    reboot dimension
   EREF     =   0.00    reference energy to select bands
   IMIX   =      4    mixing-type and parameters
     AMIX     =   0.40;   BMIX     =  1.00
     AMIX_MAG =   1.60;   BMIX_MAG =  1.00
     AMIN     =   0.10
     WC   =   100.;   INIMIX=   1;  MIXPRE=   1;  MAXMIX= -45

 Intra band minimization:
   WEIMIN = 0.0010     energy-eigenvalue tresh-hold
   EBREAK =  0.18E-07  absolut break condition
   DEPER  =   0.30     relativ break condition  

   TIME   =   0.40     timestep for ELM

  volume/ion in A,a.u.               =      94.53       637.89
  Fermi-wavevector in a.u.,A,eV,Ry     =   0.614536  1.161305  5.138306  0.377655
  Thomas-Fermi vector in A             =   1.671582
 
 Write flags
   LWAVE        =      T    write WAVECAR
   LDOWNSAMPLE  =      F    k-point downsampling of WAVECAR
   LCHARG       =      T    write CHGCAR
   LVTOT        =      F    write LOCPOT, total local potential
   LVHAR        =      F    write LOCPOT, Hartree potential only
   LELF         =      F    write electronic localiz. function (ELF)
   LORBIT       =      0    0 simple, 1 ext, 2 COOP (PROOUT), +10 PAW based schemes


 Dipole corrections
   LMONO  =      F    monopole corrections only (constant potential shift)
   LDIPOL =      F    correct potential (dipole corrections)
   IDIPOL =      0    1-x, 2-y, 3-z, 4-all directions 
   EPSILON=  1.0000000 bulk dielectric constant

 Exchange correlation treatment:
   GGA     =    PE    GGA type
   LEXCH   =     8    internal setting for exchange type
   VOSKOWN=      0    Vosko Wilk Nusair interpolation
   LHFCALC =     F    Hartree Fock is set to
   LHFONE  =     F    Hartree Fock one center treatment
   AEXX    =    0.0000 exact exchange contribution

 Linear response parameters
   LEPSILON=     F    determine dielectric tensor
   LRPA    =     F    only Hartree local field effects (RPA)
   LNABLA  =     F    use nabla operator in PAW spheres
   LVEL    =     F    velocity operator in full k-point grid
   LINTERFAST=   F  fast interpolation
   KINTER  =     0    interpolate to denser k-point grid
   CSHIFT  =0.1000    complex shift for real part using Kramers Kronig
   OMEGAMAX=  -1.0    maximum frequency
   DEG_THRESHOLD= 0.2000000E-02 threshold for treating states as degnerate
   RTIME   =   -0.100 relaxation time in fs
  (WPLASMAI=    0.000 imaginary part of plasma frequency in eV, 0.658/RTIME)
   DFIELD  = 0.0000000 0.0000000 0.0000000 field for delta impulse in time
 
 Orbital magnetization related:
   ORBITALMAG=     F  switch on orbital magnetization
   LCHIMAG   =     F  perturbation theory with respect to B field
   DQ        =  0.001000  dq finite difference perturbation B field
   LLRAUG    =     F  two centre corrections for induced B field



--------------------------------------------------------------------------------------------------------


 conjugate gradient relaxation of ions
 charge density and potential will be updated during run
 non-spin polarized calculation
 Variant of blocked Davidson
 Davidson routine will perform the subspace rotation
 perform sub-space diagonalisation
    after iterative eigenvector-optimisation
 modified Broyden-mixing scheme, WC =      100.0
 initial mixing is a Kerker type mixing with AMIX =  0.4000 and BMIX =      1.0000
 Hartree-type preconditioning will be used
 using additional bands            4
 reciprocal scheme for non local part
 use partial core corrections
 calculate Harris-corrections to forces 
   (improved forces if not selfconsistent)
 use gradient corrections 
 use of overlap-Matrix (Vanderbilt PP)
 Gauss-broadening in eV      SIGMA  =   0.10


--------------------------------------------------------------------------------------------------------


  energy-cutoff  :      600.00
  volume of cell :      378.10
      direct lattice vectors                 reciprocal lattice vectors
     4.404268549  0.000000000  0.000000000     0.227052458  0.000000000  0.000000000
     0.000000000  4.292477857  0.000000000     0.000000000  0.232965675  0.000000000
     0.000000000  0.000000000 20.000000000     0.000000000  0.000000000  0.050000000

  length of vectors
     4.404268549  4.292477857 20.000000000     0.227052458  0.232965675  0.050000000


 
 k-points in units of 2pi/SCALE and weight: KMesh Grid                              
   0.00000000  0.00000000  0.00000000       0.004
   0.01513683  0.00000000  0.00000000       0.009
   0.03027366  0.00000000  0.00000000       0.009
   0.04541049  0.00000000  0.00000000       0.009
   0.06054732  0.00000000  0.00000000       0.009
   0.07568415  0.00000000  0.00000000       0.009
   0.09082098  0.00000000  0.00000000       0.009
   0.10595781  0.00000000  0.00000000       0.009
   0.00000000  0.01553104  0.00000000       0.009
   0.01513683  0.01553104  0.00000000       0.009
   0.03027366  0.01553104  0.00000000       0.009
   0.04541049  0.01553104  0.00000000       0.009
   0.06054732  0.01553104  0.00000000       0.009
   0.07568415  0.01553104  0.00000000       0.009
   0.09082098  0.01553104  0.00000000       0.009
   0.10595781  0.01553104  0.00000000       0.009
  -0.10595781  0.01553104  0.00000000       0.009
  -0.09082098  0.01553104  0.00000000       0.009
  -0.07568415  0.01553104  0.00000000       0.009
  -0.06054732  0.01553104  0.00000000       0.009
  -0.04541049  0.01553104  0.00000000       0.009
  -0.03027366  0.01553104  0.00000000       0.009
  -0.01513683  0.01553104  0.00000000       0.009
   0.00000000  0.03106209  0.00000000       0.009
   0.01513683  0.03106209  0.00000000       0.009
   0.03027366  0.03106209  0.00000000       0.009
   0.04541049  0.03106209  0.00000000       0.009
   0.06054732  0.03106209  0.00000000       0.009
   0.07568415  0.03106209  0.00000000       0.009
   0.09082098  0.03106209  0.00000000       0.009
   0.10595781  0.03106209  0.00000000       0.009
  -0.10595781  0.03106209  0.00000000       0.009
  -0.09082098  0.03106209  0.00000000       0.009
  -0.07568415  0.03106209  0.00000000       0.009
  -0.06054732  0.03106209  0.00000000       0.009
  -0.04541049  0.03106209  0.00000000       0.009
  -0.03027366  0.03106209  0.00000000       0.009
  -0.01513683  0.03106209  0.00000000       0.009
   0.00000000  0.04659313  0.00000000       0.009
   0.01513683  0.04659313  0.00000000       0.009
   0.03027366  0.04659313  0.00000000       0.009
   0.04541049  0.04659313  0.00000000       0.009
   0.06054732  0.04659313  0.00000000       0.009
   0.07568415  0.04659313  0.00000000       0.009
   0.09082098  0.04659313  0.00000000       0.009
   0.10595781  0.04659313  0.00000000       0.009
  -0.10595781  0.04659313  0.00000000       0.009
  -0.09082098  0.04659313  0.00000000       0.009
  -0.07568415  0.04659313  0.00000000       0.009
  -0.06054732  0.04659313  0.00000000       0.009
  -0.04541049  0.04659313  0.00000000       0.009
  -0.03027366  0.04659313  0.00000000       0.009
  -0.01513683  0.04659313  0.00000000       0.009
   0.00000000  0.06212418  0.00000000       0.009
   0.01513683  0.06212418  0.00000000       0.009
   0.03027366  0.06212418  0.00000000       0.009
   0.04541049  0.06212418  0.00000000       0.009
   0.06054732  0.06212418  0.00000000       0.009
   0.07568415  0.06212418  0.00000000       0.009
   0.09082098  0.06212418  0.00000000       0.009
   0.10595781  0.06212418  0.00000000       0.009
  -0.10595781  0.06212418  0.00000000       0.009
  -0.09082098  0.06212418  0.00000000       0.009
  -0.07568415  0.06212418  0.00000000       0.009
  -0.06054732  0.06212418  0.00000000       0.009
  -0.04541049  0.06212418  0.00000000       0.009
  -0.03027366  0.06212418  0.00000000       0.009
  -0.01513683  0.06212418  0.00000000       0.009
   0.00000000  0.07765522  0.00000000       0.009
   0.01513683  0.07765522  0.00000000       0.009
   0.03027366  0.07765522  0.00000000       0.009
   0.04541049  0.07765522  0.00000000       0.009
   0.06054732  0.07765522  0.00000000       0.009
   0.07568415  0.07765522  0.00000000       0.009
   0.09082098  0.07765522  0.00000000       0.009
   0.10595781  0.07765522  0.00000000       0.009
  -0.10595781  0.07765522  0.00000000       0.009
  -0.09082098  0.07765522  0.00000000       0.009
  -0.07568415  0.07765522  0.00000000       0.009
  -0.06054732  0.07765522  0.00000000       0.009
  -0.04541049  0.07765522  0.00000000       0.009
  -0.03027366  0.07765522  0.00000000       0.009
  -0.01513683  0.07765522  0.00000000       0.009
   0.00000000  0.09318627  0.00000000       0.009
   0.01513683  0.09318627  0.00000000       0.009
   0.03027366  0.09318627  0.00000000       0.009
   0.04541049  0.09318627  0.00000000       0.009
   0.06054732  0.09318627  0.00000000       0.009
   0.07568415  0.09318627  0.00000000       0.009
   0.09082098  0.09318627  0.00000000       0.009
   0.10595781  0.09318627  0.00000000       0.009
  -0.10595781  0.09318627  0.00000000       0.009
  -0.09082098  0.09318627  0.00000000       0.009
  -0.07568415  0.09318627  0.00000000       0.009
  -0.06054732  0.09318627  0.00000000       0.009
  -0.04541049  0.09318627  0.00000000       0.009
  -0.03027366  0.09318627  0.00000000       0.009
  -0.01513683  0.09318627  0.00000000       0.009
   0.00000000  0.10871731  0.00000000       0.009
   0.01513683  0.10871731  0.00000000       0.009
   0.03027366  0.10871731  0.00000000       0.009
   0.04541049  0.10871731  0.00000000       0.009
   0.06054732  0.10871731  0.00000000       0.009
   0.07568415  0.10871731  0.00000000       0.009
   0.09082098  0.10871731  0.00000000       0.009
   0.10595781  0.10871731  0.00000000       0.009
  -0.10595781  0.10871731  0.00000000       0.009
  -0.09082098  0.10871731  0.00000000       0.009
  -0.07568415  0.10871731  0.00000000       0.009
  -0.06054732  0.10871731  0.00000000       0.009
  -0.04541049  0.10871731  0.00000000       0.009
  -0.03027366  0.10871731  0.00000000       0.009
  -0.01513683  0.10871731  0.00000000       0.009
 
 k-points in reciprocal lattice and weights: KMesh Grid                              
   0.00000000  0.00000000  0.00000000       0.004
   0.06666667  0.00000000  0.00000000       0.009
   0.13333333  0.00000000  0.00000000       0.009
   0.20000000  0.00000000  0.00000000       0.009
   0.26666667  0.00000000  0.00000000       0.009
   0.33333333  0.00000000  0.00000000       0.009
   0.40000000  0.00000000  0.00000000       0.009
   0.46666667  0.00000000  0.00000000       0.009
   0.00000000  0.06666667  0.00000000       0.009
   0.06666667  0.06666667  0.00000000       0.009
   0.13333333  0.06666667  0.00000000       0.009
   0.20000000  0.06666667  0.00000000       0.009
   0.26666667  0.06666667  0.00000000       0.009
   0.33333333  0.06666667  0.00000000       0.009
   0.40000000  0.06666667  0.00000000       0.009
   0.46666667  0.06666667  0.00000000       0.009
  -0.46666667  0.06666667  0.00000000       0.009
  -0.40000000  0.06666667  0.00000000       0.009
  -0.33333333  0.06666667  0.00000000       0.009
  -0.26666667  0.06666667  0.00000000       0.009
  -0.20000000  0.06666667  0.00000000       0.009
  -0.13333333  0.06666667  0.00000000       0.009
  -0.06666667  0.06666667  0.00000000       0.009
   0.00000000  0.13333333  0.00000000       0.009
   0.06666667  0.13333333  0.00000000       0.009
   0.13333333  0.13333333  0.00000000       0.009
   0.20000000  0.13333333  0.00000000       0.009
   0.26666667  0.13333333  0.00000000       0.009
   0.33333333  0.13333333  0.00000000       0.009
   0.40000000  0.13333333  0.00000000       0.009
   0.46666667  0.13333333  0.00000000       0.009
  -0.46666667  0.13333333  0.00000000       0.009
  -0.40000000  0.13333333  0.00000000       0.009
  -0.33333333  0.13333333  0.00000000       0.009
  -0.26666667  0.13333333  0.00000000       0.009
  -0.20000000  0.13333333  0.00000000       0.009
  -0.13333333  0.13333333  0.00000000       0.009
  -0.06666667  0.13333333  0.00000000       0.009
   0.00000000  0.20000000  0.00000000       0.009
   0.06666667  0.20000000  0.00000000       0.009
   0.13333333  0.20000000  0.00000000       0.009
   0.20000000  0.20000000  0.00000000       0.009
   0.26666667  0.20000000  0.00000000       0.009
   0.33333333  0.20000000  0.00000000       0.009
   0.40000000  0.20000000  0.00000000       0.009
   0.46666667  0.20000000  0.00000000       0.009
  -0.46666667  0.20000000  0.00000000       0.009
  -0.40000000  0.20000000  0.00000000       0.009
  -0.33333333  0.20000000  0.00000000       0.009
  -0.26666667  0.20000000  0.00000000       0.009
  -0.20000000  0.20000000  0.00000000       0.009
  -0.13333333  0.20000000  0.00000000       0.009
  -0.06666667  0.20000000  0.00000000       0.009
   0.00000000  0.26666667  0.00000000       0.009
   0.06666667  0.26666667  0.00000000       0.009
   0.13333333  0.26666667  0.00000000       0.009
   0.20000000  0.26666667  0.00000000       0.009
   0.26666667  0.26666667  0.00000000       0.009
   0.33333333  0.26666667  0.00000000       0.009
   0.40000000  0.26666667  0.00000000       0.009
   0.46666667  0.26666667  0.00000000       0.009
  -0.46666667  0.26666667  0.00000000       0.009
  -0.40000000  0.26666667  0.00000000       0.009
  -0.33333333  0.26666667  0.00000000       0.009
  -0.26666667  0.26666667  0.00000000       0.009
  -0.20000000  0.26666667  0.00000000       0.009
  -0.13333333  0.26666667  0.00000000       0.009
  -0.06666667  0.26666667  0.00000000       0.009
   0.00000000  0.33333333  0.00000000       0.009
   0.06666667  0.33333333  0.00000000       0.009
   0.13333333  0.33333333  0.00000000       0.009
   0.20000000  0.33333333  0.00000000       0.009
   0.26666667  0.33333333  0.00000000       0.009
   0.33333333  0.33333333  0.00000000       0.009
   0.40000000  0.33333333  0.00000000       0.009
   0.46666667  0.33333333  0.00000000       0.009
  -0.46666667  0.33333333  0.00000000       0.009
  -0.40000000  0.33333333  0.00000000       0.009
  -0.33333333  0.33333333  0.00000000       0.009
  -0.26666667  0.33333333  0.00000000       0.009
  -0.20000000  0.33333333  0.00000000       0.009
  -0.13333333  0.33333333  0.00000000       0.009
  -0.06666667  0.33333333  0.00000000       0.009
   0.00000000  0.40000000  0.00000000       0.009
   0.06666667  0.40000000  0.00000000       0.009
   0.13333333  0.40000000  0.00000000       0.009
   0.20000000  0.40000000  0.00000000       0.009
   0.26666667  0.40000000  0.00000000       0.009
   0.33333333  0.40000000  0.00000000       0.009
   0.40000000  0.40000000  0.00000000       0.009
   0.46666667  0.40000000  0.00000000       0.009
  -0.46666667  0.40000000  0.00000000       0.009
  -0.40000000  0.40000000  0.00000000       0.009
  -0.33333333  0.40000000  0.00000000       0.009
  -0.26666667  0.40000000  0.00000000       0.009
  -0.20000000  0.40000000  0.00000000       0.009
  -0.13333333  0.40000000  0.00000000       0.009
  -0.06666667  0.40000000  0.00000000       0.009
   0.00000000  0.46666667  0.00000000       0.009
   0.06666667  0.46666667  0.00000000       0.009
   0.13333333  0.46666667  0.00000000       0.009
   0.20000000  0.46666667  0.00000000       0.009
   0.26666667  0.46666667  0.00000000       0.009
   0.33333333  0.46666667  0.00000000       0.009
   0.40000000  0.46666667  0.00000000       0.009
   0.46666667  0.46666667  0.00000000       0.009
  -0.46666667  0.46666667  0.00000000       0.009
  -0.40000000  0.46666667  0.00000000       0.009
  -0.33333333  0.46666667  0.00000000       0.009
  -0.26666667  0.46666667  0.00000000       0.009
  -0.20000000  0.46666667  0.00000000       0.009
  -0.13333333  0.46666667  0.00000000       0.009
  -0.06666667  0.46666667  0.00000000       0.009
 
 position of ions in fractional coordinates (direct lattice) 
   0.58124336  0.75000000  0.56874314
   0.08124336  0.25000000  0.43125686
   0.03286064  0.25000000  0.56707387
   0.53286061  0.75000000  0.43292613
 
 position of ions in cartesian coordinates  (Angst):
   2.55995184  3.21935839 11.37486283
   0.35781757  1.07311946  8.62513717
   0.14472710  1.07311946 11.34147733
   2.34686125  3.21935839  8.65852267
 


--------------------------------------------------------------------------------------------------------


 k-point  1 :   0.0000 0.0000 0.0000  plane waves:   12687
 k-point  2 :   0.0667 0.0000 0.0000  plane waves:   12661
 k-point  3 :   0.1333 0.0000 0.0000  plane waves:   12649
 k-point  4 :   0.2000 0.0000 0.0000  plane waves:   12605
 k-point  5 :   0.2667 0.0000 0.0000  plane waves:   12592
 k-point  6 :   0.3333 0.0000 0.0000  plane waves:   12644
 k-point  7 :   0.4000 0.0000 0.0000  plane waves:   12652
 k-point  8 :   0.4667 0.0000 0.0000  plane waves:   12644
 k-point  9 :   0.0000 0.0667 0.0000  plane waves:   12637
 k-point 10 :   0.0667 0.0667 0.0000  plane waves:   12657
 k-point 11 :   0.1333 0.0667 0.0000  plane waves:   12636
 k-point 12 :   0.2000 0.0667 0.0000  plane waves:   12613
 k-point 13 :   0.2667 0.0667 0.0000  plane waves:   12625
 k-point 14 :   0.3333 0.0667 0.0000  plane waves:   12646
 k-point 15 :   0.4000 0.0667 0.0000  plane waves:   12638
 k-point 16 :   0.4667 0.0667 0.0000  plane waves:   12658
 k-point 17 :  -0.4667 0.0667 0.0000  plane waves:   12658
 k-point 18 :  -0.4000 0.0667 0.0000  plane waves:   12638
 k-point 19 :  -0.3333 0.0667 0.0000  plane waves:   12646
 k-point 20 :  -0.2667 0.0667 0.0000  plane waves:   12625
 k-point 21 :  -0.2000 0.0667 0.0000  plane waves:   12613
 k-point 22 :  -0.1333 0.0667 0.0000  plane waves:   12636
 k-point 23 :  -0.0667 0.0667 0.0000  plane waves:   12657
 k-point 24 :   0.0000 0.1333 0.0000  plane waves:   12627
 k-point 25 :   0.0667 0.1333 0.0000  plane waves:   12624
 k-point 26 :   0.1333 0.1333 0.0000  plane waves:   12621
 k-point 27 :   0.2000 0.1333 0.0000  plane waves:   12600
 k-point 28 :   0.2667 0.1333 0.0000  plane waves:   12622
 k-point 29 :   0.3333 0.1333 0.0000  plane waves:   12634
 k-point 30 :   0.4000 0.1333 0.0000  plane waves:   12638
 k-point 31 :   0.4667 0.1333 0.0000  plane waves:   12648
 k-point 32 :  -0.4667 0.1333 0.0000  plane waves:   12648
 k-point 33 :  -0.4000 0.1333 0.0000  plane waves:   12638
 k-point 34 :  -0.3333 0.1333 0.0000  plane waves:   12634
 k-point 35 :  -0.2667 0.1333 0.0000  plane waves:   12622
 k-point 36 :  -0.2000 0.1333 0.0000  plane waves:   12600
 k-point 37 :  -0.1333 0.1333 0.0000  plane waves:   12621
 k-point 38 :  -0.0667 0.1333 0.0000  plane waves:   12624
 k-point 39 :   0.0000 0.2000 0.0000  plane waves:   12633
 k-point 40 :   0.0667 0.2000 0.0000  plane waves:   12620
 k-point 41 :   0.1333 0.2000 0.0000  plane waves:   12614
 k-point 42 :   0.2000 0.2000 0.0000  plane waves:   12631
 k-point 43 :   0.2667 0.2000 0.0000  plane waves:   12624
 k-point 44 :   0.3333 0.2000 0.0000  plane waves:   12614
 k-point 45 :   0.4000 0.2000 0.0000  plane waves:   12645
 k-point 46 :   0.4667 0.2000 0.0000  plane waves:   12646
 k-point 47 :  -0.4667 0.2000 0.0000  plane waves:   12646
 k-point 48 :  -0.4000 0.2000 0.0000  plane waves:   12645
 k-point 49 :  -0.3333 0.2000 0.0000  plane waves:   12614
 k-point 50 :  -0.2667 0.2000 0.0000  plane waves:   12624
 k-point 51 :  -0.2000 0.2000 0.0000  plane waves:   12631
 k-point 52 :  -0.1333 0.2000 0.0000  plane waves:   12614
 k-point 53 :  -0.0667 0.2000 0.0000  plane waves:   12620
 k-point 54 :   0.0000 0.2667 0.0000  plane waves:   12599
 k-point 55 :   0.0667 0.2667 0.0000  plane waves:   12607
 k-point 56 :   0.1333 0.2667 0.0000  plane waves:   12603
 k-point 57 :   0.2000 0.2667 0.0000  plane waves:   12621
 k-point 58 :   0.2667 0.2667 0.0000  plane waves:   12622
 k-point 59 :   0.3333 0.2667 0.0000  plane waves:   12611
 k-point 60 :   0.4000 0.2667 0.0000  plane waves:   12633
 k-point 61 :   0.4667 0.2667 0.0000  plane waves:   12639
 k-point 62 :  -0.4667 0.2667 0.0000  plane waves:   12639
 k-point 63 :  -0.4000 0.2667 0.0000  plane waves:   12633
 k-point 64 :  -0.3333 0.2667 0.0000  plane waves:   12611
 k-point 65 :  -0.2667 0.2667 0.0000  plane waves:   12622
 k-point 66 :  -0.2000 0.2667 0.0000  plane waves:   12621
 k-point 67 :  -0.1333 0.2667 0.0000  plane waves:   12603
 k-point 68 :  -0.0667 0.2667 0.0000  plane waves:   12607
 k-point 69 :   0.0000 0.3333 0.0000  plane waves:   12591
 k-point 70 :   0.0667 0.3333 0.0000  plane waves:   12592
 k-point 71 :   0.1333 0.3333 0.0000  plane waves:   12599
 k-point 72 :   0.2000 0.3333 0.0000  plane waves:   12615
 k-point 73 :   0.2667 0.3333 0.0000  plane waves:   12607
 k-point 74 :   0.3333 0.3333 0.0000  plane waves:   12612
 k-point 75 :   0.4000 0.3333 0.0000  plane waves:   12616
 k-point 76 :   0.4667 0.3333 0.0000  plane waves:   12633
 k-point 77 :  -0.4667 0.3333 0.0000  plane waves:   12633
 k-point 78 :  -0.4000 0.3333 0.0000  plane waves:   12616
 k-point 79 :  -0.3333 0.3333 0.0000  plane waves:   12612
 k-point 80 :  -0.2667 0.3333 0.0000  plane waves:   12607
 k-point 81 :  -0.2000 0.3333 0.0000  plane waves:   12615
 k-point 82 :  -0.1333 0.3333 0.0000  plane waves:   12599
 k-point 83 :  -0.0667 0.3333 0.0000  plane waves:   12592
 k-point 84 :   0.0000 0.4000 0.0000  plane waves:   12569
 k-point 85 :   0.0667 0.4000 0.0000  plane waves:   12578
 k-point 86 :   0.1333 0.4000 0.0000  plane waves:   12586
 k-point 87 :   0.2000 0.4000 0.0000  plane waves:   12594
 k-point 88 :   0.2667 0.4000 0.0000  plane waves:   12615
 k-point 89 :   0.3333 0.4000 0.0000  plane waves:   12608
 k-point 90 :   0.4000 0.4000 0.0000  plane waves:   12606
 k-point 91 :   0.4667 0.4000 0.0000  plane waves:   12606
 k-point 92 :  -0.4667 0.4000 0.0000  plane waves:   12606
 k-point 93 :  -0.4000 0.4000 0.0000  plane waves:   12606
 k-point 94 :  -0.3333 0.4000 0.0000  plane waves:   12608
 k-point 95 :  -0.2667 0.4000 0.0000  plane waves:   12615
 k-point 96 :  -0.2000 0.4000 0.0000  plane waves:   12594
 k-point 97 :  -0.1333 0.4000 0.0000  plane waves:   12586
 k-point 98 :  -0.0667 0.4000 0.0000  plane waves:   12578
 k-point 99 :   0.0000 0.4667 0.0000  plane waves:   12598
 k-point ** :   0.0667 0.4667 0.0000  plane waves:   12588
 k-point ** :   0.1333 0.4667 0.0000  plane waves:   12586
 k-point ** :   0.2000 0.4667 0.0000  plane waves:   12586
 k-point ** :   0.2667 0.4667 0.0000  plane waves:   12588
 k-point ** :   0.3333 0.4667 0.0000  plane waves:   12592
 k-point ** :   0.4000 0.4667 0.0000  plane waves:   12594
 k-point ** :   0.4667 0.4667 0.0000  plane waves:   12595
 k-point ** :  -0.4667 0.4667 0.0000  plane waves:   12595
 k-point ** :  -0.4000 0.4667 0.0000  plane waves:   12594
 k-point ** :  -0.3333 0.4667 0.0000  plane waves:   12592
 k-point ** :  -0.2667 0.4667 0.0000  plane waves:   12588
 k-point ** :  -0.2000 0.4667 0.0000  plane waves:   12586
 k-point ** :  -0.1333 0.4667 0.0000  plane waves:   12586
 k-point ** :  -0.0667 0.4667 0.0000  plane waves:   12588

 maximum and minimum number of plane-waves per node :       553      510

 maximum number of plane-waves:     12687
 maximum index in each direction: 
   IXMAX=    9   IYMAX=    8   IZMAX=   39
   IXMIN=   -9   IYMIN=   -9   IZMIN=  -39


 parallel 3D FFT for wavefunctions:
    minimum data exchange during FFTs selected (reduces bandwidth)
 parallel 3D FFT for charge:
    minimum data exchange during FFTs selected (reduces bandwidth)


 total amount of memory used by VASP MPI-rank0    63270. kBytes
=======================================================================

   base      :      30000. kBytes
   nonl-proj :      12491. kBytes
   fftplans  :       2678. kBytes
   grid      :       4349. kBytes
   one-center:          8. kBytes
   wavefun   :      13744. kBytes
 
     INWAV:  cpu time    0.0000: real time    0.0000
 Broyden mixing: mesh for mixing (old mesh)
   NGX = 17   NGY = 17   NGZ = 79
  (NGX  = 72   NGY  = 72   NGZ  =320)
  gives a total of  22831 points

 initial charge density was supplied:
 charge density of overlapping atoms calculated
 number of electron      20.0000000 magnetization 
 keeping initial charge density in first step


--------------------------------------------------------------------------------------------------------


 Maximum index for augmentation-charges         2206 (set IRDMAX)


--------------------------------------------------------------------------------------------------------


 First call to EWALD:  gamma=   0.245
 Maximum number of real-space cells 4x 4x 1
 Maximum number of reciprocal cells 2x 2x 7

    FEWALD:  cpu time    0.0012: real time    0.0020


--------------------------------------- Iteration      1(   1)  ---------------------------------------


    POTLOK:  cpu time    0.0728: real time    0.1494
    SETDIJ:  cpu time    0.0092: real time    0.0100
     EDDAV:  cpu time    2.1099: real time    2.1193
       DOS:  cpu time    0.0045: real time    0.0045
    --------------------------------------------
      LOOP:  cpu time    2.1964: real time    2.2833

 eigenvalue-minimisations  :  3164
 total energy-change (2. order) : 0.1444738E+03  (-0.6331933E+03)
 number of electron      20.0000000 magnetization 
 augmentation part       20.0000000 magnetization 

 Free energy of the ion-electron system (eV)
  ---------------------------------------------------
  alpha Z        PSCENC =         9.45693288
  Ewald energy   TEWEN  =      1144.73048783
  -Hartree energ DENC   =     -1746.52270110
  -exchange      EXHF   =         0.00000000
  -V(xc)+E(xc)   XCENC  =      -238.62158245
  PAW double counting   =       799.43158084     -524.17639913
  entropy T*S    EENTRO =        -0.01318593
  eigenvalues    EBANDS =        -2.23919627
  atomic energy  EATOM  =       702.42789710
  Solvation  Ediel_sol  =         0.00000000
  ---------------------------------------------------
  free energy    TOTEN  =       144.47383377 eV

  energy without entropy =      144.48701970  energy(sigma->0) =      144.48042674


--------------------------------------------------------------------------------------------------------




--------------------------------------- Iteration      1(   2)  ---------------------------------------


     EDDAV:  cpu time    4.3532: real time    4.3652
       DOS:  cpu time    0.0046: real time    0.0046
    --------------------------------------------
      LOOP:  cpu time    4.3578: real time    4.3698

 eigenvalue-minimisations  :  5210
 total energy-change (2. order) :-0.1396086E+03  (-0.1349895E+03)
 number of electron      20.0000000 magnetization 
 augmentation part       20.0000000 magnetization 

 Free energy of the ion-electron system (eV)
  ---------------------------------------------------
  alpha Z        PSCENC =         9.45693288
  Ewald energy   TEWEN  =      1144.73048783
  -Hartree energ DENC   =     -1746.52270110
  -exchange      EXHF   =         0.00000000
  -V(xc)+E(xc)   XCENC  =      -238.62158245
  PAW double counting   =       799.43158084     -524.17639913
  entropy T*S    EENTRO =        -0.00196091
  eigenvalues    EBANDS =      -141.85904193
  atomic energy  EATOM  =       702.42789710
  Solvation  Ediel_sol  =         0.00000000
  ---------------------------------------------------
  free energy    TOTEN  =         4.86521313 eV

  energy without entropy =        4.86717404  energy(sigma->0) =        4.86619359


--------------------------------------------------------------------------------------------------------




--------------------------------------- Iteration      1(   3)  ---------------------------------------


     EDDAV:  cpu time    3.4892: real time    3.4983
       DOS:  cpu time    0.0032: real time    0.0032
    --------------------------------------------
      LOOP:  cpu time    3.4924: real time    3.5015

 eigenvalue-minimisations  :  3944
 total energy-change (2. order) :-0.2081528E+02  (-0.2062424E+02)
 number of electron      20.0000000 magnetization 
 augmentation part       20.0000000 magnetization 

 Free energy of the ion-electron system (eV)
  ---------------------------------------------------
  alpha Z        PSCENC =         9.45693288
  Ewald energy   TEWEN  =      1144.73048783
  -Hartree energ DENC   =     -1746.52270110
  -exchange      EXHF   =         0.00000000
  -V(xc)+E(xc)   XCENC  =      -238.62158245
  PAW double counting   =       799.43158084     -524.17639913
  entropy T*S    EENTRO =        -0.00000000
  eigenvalues    EBANDS =      -162.67628301
  atomic energy  EATOM  =       702.42789710
  Solvation  Ediel_sol  =         0.00000000
  ---------------------------------------------------
  free energy    TOTEN  =       -15.95006703 eV

  energy without entropy =      -15.95006703  energy(sigma->0) =      -15.95006703


--------------------------------------------------------------------------------------------------------




--------------------------------------- Iteration      1(   4)  ---------------------------------------


     EDDAV:  cpu time    3.2062: real time    3.2181
       DOS:  cpu time    0.0031: real time    0.0031
    --------------------------------------------
      LOOP:  cpu time    3.2093: real time    3.2212

 eigenvalue-minimisations  :  4600
 total energy-change (2. order) :-0.8334545E+00  (-0.8308835E+00)
 number of electron      20.0000000 magnetization 
 augmentation part       20.0000000 magnetization 

 Free energy of the ion-electron system (eV)
  ---------------------------------------------------
  alpha Z        PSCENC =         9.45693288
  Ewald energy   TEWEN  =      1144.73048783
  -Hartree energ DENC   =     -1746.52270110
  -exchange      EXHF   =         0.00000000
  -V(xc)+E(xc)   XCENC  =      -238.62158245
  PAW double counting   =       799.43158084     -524.17639913
  entropy T*S    EENTRO =        -0.00000000
  eigenvalues    EBANDS =      -163.50973755
  atomic energy  EATOM  =       702.42789710
  Solvation  Ediel_sol  =         0.00000000
  ---------------------------------------------------
  free energy    TOTEN  =       -16.78352158 eV

  energy without entropy =      -16.78352158  energy(sigma->0) =      -16.78352158


--------------------------------------------------------------------------------------------------------




--------------------------------------- Iteration      1(   5)  ---------------------------------------


     EDDAV:  cpu time    3.0456: real time    3.0553
       DOS:  cpu time    0.0032: real time    0.0032
    CHARGE:  cpu time    0.2096: real time    0.2103
    MIXING:  cpu time    0.0013: real time    0.0013
    --------------------------------------------
      LOOP:  cpu time    3.2597: real time    3.2701

 eigenvalue-minimisations  :  4016
 total energy-change (2. order) :-0.1733385E-01  (-0.1732009E-01)
 number of electron      20.0000001 magnetization 
 augmentation part       -4.5217124 magnetization 

 Broyden mixing:
  rms(total) = 0.44920E+00    rms(broyden)= 0.44920E+00
  rms(prec ) = 0.49043E+00
  weight for this iteration     100.00

 Free energy of the ion-electron system (eV)
  ---------------------------------------------------
  alpha Z        PSCENC =         9.45693288
  Ewald energy   TEWEN  =      1144.73048783
  -Hartree energ DENC   =     -1746.52270110
  -exchange      EXHF   =         0.00000000
  -V(xc)+E(xc)   XCENC  =      -238.62158245
  PAW double counting   =       799.43158084     -524.17639913
  entropy T*S    EENTRO =        -0.00000000
  eigenvalues    EBANDS =      -163.52707140
  atomic energy  EATOM  =       702.42789710
  Solvation  Ediel_sol  =         0.00000000
  ---------------------------------------------------
  free energy    TOTEN  =       -16.80085542 eV

  energy without entropy =      -16.80085542  energy(sigma->0) =      -16.80085542


--------------------------------------------------------------------------------------------------------




--------------------------------------- Iteration      1(   6)  ---------------------------------------


    POTLOK:  cpu time    0.0358: real time    0.0360
    SETDIJ:  cpu time    0.0032: real time    0.0036
     EDDAV:  cpu time    2.5205: real time    2.5309
       DOS:  cpu time    0.0033: real time    0.0034
    CHARGE:  cpu time    0.1747: real time    0.1748
    MIXING:  cpu time    0.0011: real time    0.0013
    --------------------------------------------
      LOOP:  cpu time    2.7385: real time    2.7500

 eigenvalue-minimisations  :  3960
 total energy-change (2. order) : 0.4968216E+00  (-0.1269663E+00)
 number of electron      20.0000001 magnetization 
 augmentation part       -4.4889845 magnetization 

 Broyden mixing:
  rms(total) = 0.27501E+00    rms(broyden)= 0.27501E+00
  rms(prec ) = 0.28422E+00
  weight for this iteration     100.00

 eigenvalues of (default mixing * dielectric matrix)
  average eigenvalue GAMMA=   1.7827
  1.7827

 Free energy of the ion-electron system (eV)
  ---------------------------------------------------
  alpha Z        PSCENC =         9.45693288
  Ewald energy   TEWEN  =      1144.73048783
  -Hartree energ DENC   =     -1754.42264216
  -exchange      EXHF   =         0.00000000
  -V(xc)+E(xc)   XCENC  =      -238.13712981
  PAW double counting   =       923.02582348     -647.94990724
  entropy T*S    EENTRO =        -0.00000000
  eigenvalues    EBANDS =      -155.43549595
  atomic energy  EATOM  =       702.42789710
  Solvation  Ediel_sol  =         0.00000000
  ---------------------------------------------------
  free energy    TOTEN  =       -16.30403386 eV

  energy without entropy =      -16.30403386  energy(sigma->0) =      -16.30403386


--------------------------------------------------------------------------------------------------------




--------------------------------------- Iteration      1(   7)  ---------------------------------------


    POTLOK:  cpu time    0.0354: real time    0.0356
    SETDIJ:  cpu time    0.0031: real time    0.0030
     EDDAV:  cpu time    2.8638: real time    2.8739
       DOS:  cpu time    0.0033: real time    0.0033
    CHARGE:  cpu time    0.1759: real time    0.1761
    MIXING:  cpu time    0.0011: real time    0.0013
    --------------------------------------------
      LOOP:  cpu time    3.0826: real time    3.0932

 eigenvalue-minimisations  :  4062
 total energy-change (2. order) : 0.2679510E-01  (-0.3131121E-01)
 number of electron      20.0000001 magnetization 
 augmentation part       -4.4810461 magnetization 

 Broyden mixing:
  rms(total) = 0.10555E+00    rms(broyden)= 0.10555E+00
  rms(prec ) = 0.11094E+00
  weight for this iteration     100.00

 eigenvalues of (default mixing * dielectric matrix)
  average eigenvalue GAMMA=   1.7291
  1.3693  2.0889

 Free energy of the ion-electron system (eV)
  ---------------------------------------------------
  alpha Z        PSCENC =         9.45693288
  Ewald energy   TEWEN  =      1144.73048783
  -Hartree energ DENC   =     -1759.37085007
  -exchange      EXHF   =         0.00000000
  -V(xc)+E(xc)   XCENC  =      -237.81694627
  PAW double counting   =      1061.35704892     -786.41545815
  entropy T*S    EENTRO =        -0.00000000
  eigenvalues    EBANDS =      -150.64635100
  atomic energy  EATOM  =       702.42789710
  Solvation  Ediel_sol  =         0.00000000
  ---------------------------------------------------
  free energy    TOTEN  =       -16.27723876 eV

  energy without entropy =      -16.27723876  energy(sigma->0) =      -16.27723876


--------------------------------------------------------------------------------------------------------




--------------------------------------- Iteration      1(   8)  ---------------------------------------


    POTLOK:  cpu time    0.0354: real time    0.0357
    SETDIJ:  cpu time    0.0031: real time    0.0031
     EDDAV:  cpu time    2.7514: real time    2.7631
       DOS:  cpu time    0.0033: real time    0.0033
    CHARGE:  cpu time    0.1765: real time    0.1771
    MIXING:  cpu time    0.0012: real time    0.0012
    --------------------------------------------
      LOOP:  cpu time    2.9708: real time    2.9834

 eigenvalue-minimisations  :  4492
 total energy-change (2. order) : 0.9471520E-02  (-0.3832432E-02)
 number of electron      20.0000001 magnetization 
 augmentation part       -4.4853360 magnetization 

 Broyden mixing:
  rms(total) = 0.20326E-01    rms(broyden)= 0.20326E-01
  rms(prec ) = 0.27783E-01
  weight for this iteration     100.00

 eigenvalues of (default mixing * dielectric matrix)
  average eigenvalue GAMMA=   1.6975
  2.5168  1.2878  1.2878

 Free energy of the ion-electron system (eV)
  ---------------------------------------------------
  alpha Z        PSCENC =         9.45693288
  Ewald energy   TEWEN  =      1144.73048783
  -Hartree energ DENC   =     -1761.08118365
  -exchange      EXHF   =         0.00000000
  -V(xc)+E(xc)   XCENC  =      -237.73676285
  PAW double counting   =      1127.60308292     -852.69976061
  entropy T*S    EENTRO =        -0.00000000
  eigenvalues    EBANDS =      -148.96846086
  atomic energy  EATOM  =       702.42789710
  Solvation  Ediel_sol  =         0.00000000
  ---------------------------------------------------
  free energy    TOTEN  =       -16.26776724 eV

  energy without entropy =      -16.26776724  energy(sigma->0) =      -16.26776724


--------------------------------------------------------------------------------------------------------




--------------------------------------- Iteration      1(   9)  ---------------------------------------


    POTLOK:  cpu time    0.0360: real time    0.0362
    SETDIJ:  cpu time    0.0033: real time    0.0038
     EDDAV:  cpu time    2.6475: real time    2.6583
       DOS:  cpu time    0.0033: real time    0.0033
    CHARGE:  cpu time    0.1764: real time    0.1767
    MIXING:  cpu time    0.0012: real time    0.0012
    --------------------------------------------
      LOOP:  cpu time    2.8678: real time    2.8795

 eigenvalue-minimisations  :  4322
 total energy-change (2. order) : 0.3691328E-02  (-0.6702665E-03)
 number of electron      20.0000001 magnetization 
 augmentation part       -4.4834605 magnetization 

 Broyden mixing:
  rms(total) = 0.99811E-02    rms(broyden)= 0.99811E-02
  rms(prec ) = 0.15615E-01
  weight for this iteration     100.00

 eigenvalues of (default mixing * dielectric matrix)
  average eigenvalue GAMMA=   1.7208
  2.2514  2.2514  1.1901  1.1901

 Free energy of the ion-electron system (eV)
  ---------------------------------------------------
  alpha Z        PSCENC =         9.45693288
  Ewald energy   TEWEN  =      1144.73048783
  -Hartree energ DENC   =     -1763.03006828
  -exchange      EXHF   =         0.00000000
  -V(xc)+E(xc)   XCENC  =      -237.66424946
  PAW double counting   =      1145.15805344     -870.26624237
  entropy T*S    EENTRO =        -0.00000000
  eigenvalues    EBANDS =      -147.07688706
  atomic energy  EATOM  =       702.42789710
  Solvation  Ediel_sol  =         0.00000000
  ---------------------------------------------------
  free energy    TOTEN  =       -16.26407591 eV

  energy without entropy =      -16.26407591  energy(sigma->0) =      -16.26407591


--------------------------------------------------------------------------------------------------------




--------------------------------------- Iteration      1(  10)  ---------------------------------------


    POTLOK:  cpu time    0.0358: real time    0.0360
    SETDIJ:  cpu time    0.0032: real time    0.0032
     EDDAV:  cpu time    2.6640: real time    2.6751
       DOS:  cpu time    0.0033: real time    0.0033
    CHARGE:  cpu time    0.1754: real time    0.1755
    MIXING:  cpu time    0.0012: real time    0.0012
    --------------------------------------------
      LOOP:  cpu time    2.8829: real time    2.8944

 eigenvalue-minimisations  :  4352
 total energy-change (2. order) : 0.1336778E-02  (-0.1304942E-03)
 number of electron      20.0000001 magnetization 
 augmentation part       -4.4821869 magnetization 

 Broyden mixing:
  rms(total) = 0.50428E-02    rms(broyden)= 0.50428E-02
  rms(prec ) = 0.92716E-02
  weight for this iteration     100.00

 eigenvalues of (default mixing * dielectric matrix)
  average eigenvalue GAMMA=   1.8557
  3.3172  2.5937  1.2305  1.2305  0.9066

 Free energy of the ion-electron system (eV)
  ---------------------------------------------------
  alpha Z        PSCENC =         9.45693288
  Ewald energy   TEWEN  =      1144.73048783
  -Hartree energ DENC   =     -1764.33519789
  -exchange      EXHF   =         0.00000000
  -V(xc)+E(xc)   XCENC  =      -237.65226698
  PAW double counting   =      1134.97859667     -860.07678757
  entropy T*S    EENTRO =        -0.00000000
  eigenvalues    EBANDS =      -145.79240117
  atomic energy  EATOM  =       702.42789710
  Solvation  Ediel_sol  =         0.00000000
  ---------------------------------------------------
  free energy    TOTEN  =       -16.26273914 eV

  energy without entropy =      -16.26273914  energy(sigma->0) =      -16.26273914


--------------------------------------------------------------------------------------------------------




--------------------------------------- Iteration      1(  11)  ---------------------------------------


    POTLOK:  cpu time    0.0358: real time    0.0360
    SETDIJ:  cpu time    0.0032: real time    0.0032
     EDDAV:  cpu time    3.7347: real time    3.7460
       DOS:  cpu time    0.0033: real time    0.0033
    CHARGE:  cpu time    0.1824: real time    0.1827
    MIXING:  cpu time    0.0012: real time    0.0013
    --------------------------------------------
      LOOP:  cpu time    3.9607: real time    3.9726

 eigenvalue-minimisations  :  4310
 total energy-change (2. order) : 0.7114260E-03  (-0.1201094E-03)
 number of electron      20.0000001 magnetization 
 augmentation part       -4.4808344 magnetization 

 Broyden mixing:
  rms(total) = 0.32153E-02    rms(broyden)= 0.32153E-02
  rms(prec ) = 0.49788E-02
  weight for this iteration     100.00

 eigenvalues of (default mixing * dielectric matrix)
  average eigenvalue GAMMA=   1.8355
  3.4007  2.3647  1.9844  1.1866  1.1866  0.8902

 Free energy of the ion-electron system (eV)
  ---------------------------------------------------
  alpha Z        PSCENC =         9.45693288
  Ewald energy   TEWEN  =      1144.73048783
  -Hartree energ DENC   =     -1765.89574723
  -exchange      EXHF   =         0.00000000
  -V(xc)+E(xc)   XCENC  =      -237.62113923
  PAW double counting   =      1136.56888871     -861.66622447
  entropy T*S    EENTRO =        -0.00000000
  eigenvalues    EBANDS =      -144.26312330
  atomic energy  EATOM  =       702.42789710
  Solvation  Ediel_sol  =         0.00000000
  ---------------------------------------------------
  free energy    TOTEN  =       -16.26202771 eV

  energy without entropy =      -16.26202771  energy(sigma->0) =      -16.26202771


--------------------------------------------------------------------------------------------------------




--------------------------------------- Iteration      1(  12)  ---------------------------------------


    POTLOK:  cpu time    0.0359: real time    0.0360
    SETDIJ:  cpu time    0.0032: real time    0.0032
     EDDAV:  cpu time    2.8682: real time    2.8784
       DOS:  cpu time    0.0034: real time    0.0035
    CHARGE:  cpu time    0.1750: real time    0.1751
    MIXING:  cpu time    0.0013: real time    0.0013
    --------------------------------------------
      LOOP:  cpu time    3.0870: real time    3.0975

 eigenvalue-minimisations  :  3620
 total energy-change (2. order) :-0.8236964E-03  (-0.2939441E-04)
 number of electron      20.0000001 magnetization 
 augmentation part       -4.4801752 magnetization 

 Broyden mixing:
  rms(total) = 0.17500E-02    rms(broyden)= 0.17500E-02
  rms(prec ) = 0.27413E-02
  weight for this iteration     100.00

 eigenvalues of (default mixing * dielectric matrix)
  average eigenvalue GAMMA=   2.0628
  4.6016  3.0658  2.5045  1.1993  1.1993  1.0232  0.8458

 Free energy of the ion-electron system (eV)
  ---------------------------------------------------
  alpha Z        PSCENC =         9.45693288
  Ewald energy   TEWEN  =      1144.73048783
  -Hartree energ DENC   =     -1766.55518003
  -exchange      EXHF   =         0.00000000
  -V(xc)+E(xc)   XCENC  =      -237.61150950
  PAW double counting   =      1138.08050779     -863.18021958
  entropy T*S    EENTRO =        -0.00000000
  eigenvalues    EBANDS =      -143.61176790
  atomic energy  EATOM  =       702.42789710
  Solvation  Ediel_sol  =         0.00000000
  ---------------------------------------------------
  free energy    TOTEN  =       -16.26285141 eV

  energy without entropy =      -16.26285141  energy(sigma->0) =      -16.26285141


--------------------------------------------------------------------------------------------------------




--------------------------------------- Iteration      1(  13)  ---------------------------------------


    POTLOK:  cpu time    0.0364: real time    0.0366
    SETDIJ:  cpu time    0.0031: real time    0.0031
     EDDAV:  cpu time    4.8482: real time    5.2429
       DOS:  cpu time    0.0033: real time    0.0033
    CHARGE:  cpu time    0.5831: real time    0.7227
    MIXING:  cpu time    0.0017: real time    0.0017
    --------------------------------------------
      LOOP:  cpu time    5.4758: real time    6.0103

 eigenvalue-minimisations  :  3728
 total energy-change (2. order) :-0.4250379E-03  (-0.7645323E-05)
 number of electron      20.0000001 magnetization 
 augmentation part       -4.4799869 magnetization 

 Broyden mixing:
  rms(total) = 0.11225E-02    rms(broyden)= 0.11225E-02
  rms(prec ) = 0.15044E-02
  weight for this iteration     100.00

 eigenvalues of (default mixing * dielectric matrix)
  average eigenvalue GAMMA=   2.2385
  5.6675  3.2733  2.4831  2.1958  1.1554  1.1554  1.0657  0.9117

 Free energy of the ion-electron system (eV)
  ---------------------------------------------------
  alpha Z        PSCENC =         9.45693288
  Ewald energy   TEWEN  =      1144.73048783
  -Hartree energ DENC   =     -1766.95410353
  -exchange      EXHF   =         0.00000000
  -V(xc)+E(xc)   XCENC  =      -237.61014186
  PAW double counting   =      1137.11731425     -862.21599095
  entropy T*S    EENTRO =        -0.00000000
  eigenvalues    EBANDS =      -143.21567216
  atomic energy  EATOM  =       702.42789710
  Solvation  Ediel_sol  =         0.00000000
  ---------------------------------------------------
  free energy    TOTEN  =       -16.26327644 eV

  energy without entropy =      -16.26327644  energy(sigma->0) =      -16.26327644


--------------------------------------------------------------------------------------------------------




--------------------------------------- Iteration      1(  14)  ---------------------------------------


    POTLOK:  cpu time    0.0376: real time    0.0378
    SETDIJ:  cpu time    0.0033: real time    0.0041
     EDDAV:  cpu time    5.0263: real time    5.0772
       DOS:  cpu time    0.0033: real time    0.0033
    CHARGE:  cpu time    0.1750: real time    0.1751
    MIXING:  cpu time    0.0014: real time    0.0014
    --------------------------------------------
      LOOP:  cpu time    5.2469: real time    5.2989

 eigenvalue-minimisations  :  3860
 total energy-change (2. order) :-0.2679343E-03  (-0.4186301E-05)
 number of electron      20.0000001 magnetization 
 augmentation part       -4.4799603 magnetization 

 Broyden mixing:
  rms(total) = 0.39272E-03    rms(broyden)= 0.39272E-03
  rms(prec ) = 0.61448E-03
  weight for this iteration     100.00

 eigenvalues of (default mixing * dielectric matrix)
  average eigenvalue GAMMA=   2.2458
  6.7459  3.0763  2.5326  2.5326  1.1805  1.1805  0.9663  0.9988  0.9988

 Free energy of the ion-electron system (eV)
  ---------------------------------------------------
  alpha Z        PSCENC =         9.45693288
  Ewald energy   TEWEN  =      1144.73048783
  -Hartree energ DENC   =     -1767.16276108
  -exchange      EXHF   =         0.00000000
  -V(xc)+E(xc)   XCENC  =      -237.61005382
  PAW double counting   =      1137.32997637     -862.42808567
  entropy T*S    EENTRO =        -0.00000000
  eigenvalues    EBANDS =      -143.00793800
  atomic energy  EATOM  =       702.42789710
  Solvation  Ediel_sol  =         0.00000000
  ---------------------------------------------------
  free energy    TOTEN  =       -16.26354438 eV

  energy without entropy =      -16.26354438  energy(sigma->0) =      -16.26354438


--------------------------------------------------------------------------------------------------------




--------------------------------------- Iteration      1(  15)  ---------------------------------------


    POTLOK:  cpu time    0.0373: real time    0.0376
    SETDIJ:  cpu time    0.0032: real time    0.0032
     EDDAV:  cpu time    3.2321: real time    3.2426
       DOS:  cpu time    0.0033: real time    0.0033
    CHARGE:  cpu time    0.2014: real time    0.2016
    MIXING:  cpu time    0.0015: real time    0.0015
    --------------------------------------------
      LOOP:  cpu time    3.4788: real time    3.4897

 eigenvalue-minimisations  :  3838
 total energy-change (2. order) :-0.5825688E-04  (-0.2056913E-06)
 number of electron      20.0000001 magnetization 
 augmentation part       -4.4799778 magnetization 

 Broyden mixing:
  rms(total) = 0.32569E-03    rms(broyden)= 0.32569E-03
  rms(prec ) = 0.49786E-03
  weight for this iteration     100.00

 eigenvalues of (default mixing * dielectric matrix)
  average eigenvalue GAMMA=   2.3600
  6.5624  4.2865  2.7034  2.7034  1.9848  1.1390  1.1390  1.2064  0.9374  0.9374

 Free energy of the ion-electron system (eV)
  ---------------------------------------------------
  alpha Z        PSCENC =         9.45693288
  Ewald energy   TEWEN  =      1144.73048783
  -Hartree energ DENC   =     -1767.17783776
  -exchange      EXHF   =         0.00000000
  -V(xc)+E(xc)   XCENC  =      -237.61043764
  PAW double counting   =      1137.14555376     -862.24353680
  entropy T*S    EENTRO =        -0.00000000
  eigenvalues    EBANDS =      -142.99266201
  atomic energy  EATOM  =       702.42789710
  Solvation  Ediel_sol  =         0.00000000
  ---------------------------------------------------
  free energy    TOTEN  =       -16.26360263 eV

  energy without entropy =      -16.26360263  energy(sigma->0) =      -16.26360263


--------------------------------------------------------------------------------------------------------




--------------------------------------- Iteration      1(  16)  ---------------------------------------


    POTLOK:  cpu time    0.0360: real time    0.0363
    SETDIJ:  cpu time    0.0031: real time    0.0031
     EDDAV:  cpu time    2.6229: real time    2.6320
       DOS:  cpu time    0.0034: real time    0.0034
    CHARGE:  cpu time    0.1739: real time    0.1741
    MIXING:  cpu time    0.0016: real time    0.0015
    --------------------------------------------
      LOOP:  cpu time    2.8408: real time    2.8504

 eigenvalue-minimisations  :  3516
 total energy-change (2. order) :-0.4477055E-04  (-0.8266017E-06)
 number of electron      20.0000001 magnetization 
 augmentation part       -4.4799894 magnetization 

 Broyden mixing:
  rms(total) = 0.12147E-03    rms(broyden)= 0.12147E-03
  rms(prec ) = 0.22200E-03
  weight for this iteration     100.00

 eigenvalues of (default mixing * dielectric matrix)
  average eigenvalue GAMMA=   2.2836
  6.8060  4.5213  2.6479  2.6479  2.2640  1.1512  1.1512  1.1941  0.9397  0.9397
  0.8568

 Free energy of the ion-electron system (eV)
  ---------------------------------------------------
  alpha Z        PSCENC =         9.45693288
  Ewald energy   TEWEN  =      1144.73048783
  -Hartree energ DENC   =     -1767.23021188
  -exchange      EXHF   =         0.00000000
  -V(xc)+E(xc)   XCENC  =      -237.61049668
  PAW double counting   =      1137.01769333     -862.11569946
  entropy T*S    EENTRO =        -0.00000000
  eigenvalues    EBANDS =      -142.94025052
  atomic energy  EATOM  =       702.42789710
  Solvation  Ediel_sol  =         0.00000000
  ---------------------------------------------------
  free energy    TOTEN  =       -16.26364741 eV

  energy without entropy =      -16.26364741  energy(sigma->0) =      -16.26364741


--------------------------------------------------------------------------------------------------------




--------------------------------------- Iteration      1(  17)  ---------------------------------------


    POTLOK:  cpu time    0.2262: real time    0.2265
    SETDIJ:  cpu time    0.1385: real time    0.1385
     EDDAV:  cpu time    3.6035: real time    3.6119
       DOS:  cpu time    0.0034: real time    0.0034
    CHARGE:  cpu time    0.1737: real time    0.1740
    MIXING:  cpu time    0.0016: real time    0.0016
    --------------------------------------------
[...]
  band No.  band energies     occupation 
      1     -14.5724      2.00000
      2     -14.3208      2.00000
      3      -8.8482      2.00000
      4      -8.6248      2.00000
      5      -6.0713      2.00000
      6      -5.1265      2.00000
      7      -4.8491      2.00000
      8      -4.1178      2.00000
      9      -3.8646      2.00000
     10      -3.1003      2.00000
     11       0.0902      0.00000
     12       1.0437      0.00000
     13       1.1299      0.00000
     14       1.5437      0.00000

 k-point    96 :      -0.2000    0.4000    0.0000
  band No.  band energies     occupation 
      1     -14.6397      2.00000
      2     -14.3416      2.00000
      3      -9.0067      2.00000
      4      -8.7226      2.00000
      5      -5.6459      2.00000
      6      -4.8507      2.00000
      7      -4.5740      2.00000
      8      -3.9831      2.00000
      9      -3.5148      2.00000
     10      -2.7417      2.00000
     11      -0.3791      0.00000
     12       0.5134      0.00000
     13       0.6944      0.00000
     14       1.2001      0.00000

 k-point    97 :      -0.1333    0.4000    0.0000
  band No.  band energies     occupation 
      1     -14.6936      2.00000
      2     -14.3626      2.00000
      3      -9.1299      2.00000
      4      -8.8033      2.00000
      5      -5.1412      2.00000
      6      -4.7867      2.00000
      7      -4.1696      2.00000
      8      -3.9380      2.00000
      9      -2.9725      2.00000
     10      -2.5312      2.00000
     11      -0.6460      0.00000
     12      -0.2044      0.00000
     13       0.4822      0.00000
     14       0.7589      0.00000

 k-point    98 :      -0.0667    0.4000    0.0000
  band No.  band energies     occupation 
      1     -14.7283      2.00000
      2     -14.3778      2.00000
      3      -9.2072      2.00000
      4      -8.8559      2.00000
      5      -4.7882      2.00000
      6      -4.6194      2.00000
      7      -3.9663      2.00000
      8      -3.7746      2.00000
      9      -2.6941      2.00000
     10      -2.4215      2.00000
     11      -0.7871      0.00000
     12      -0.4047      0.00000
     13       0.2081      0.00000
     14       0.3671      0.00000

 k-point    99 :       0.0000    0.4667    0.0000
  band No.  band energies     occupation 
      1     -14.5970      2.00000
      2     -14.4743      2.00000
      3      -9.2168      2.00000
      4      -9.0933      2.00000
      5      -4.5523      2.00000
      6      -4.3415      2.00000
      7      -3.8932      2.00000
      8      -3.7035      2.00000
      9      -2.6100      2.00000
     10      -2.2831      2.00000
     11      -0.9240      0.00000
     12      -0.4973      0.00000
     13      -0.0809      0.00000
     14       0.1159      0.00000

 k-point   100 :       0.0667    0.4667    0.0000
  band No.  band energies     occupation 
      1     -14.5872      2.00000
      2     -14.4667      2.00000
      3      -9.1898      2.00000
      4      -9.0691      2.00000
      5      -4.5680      2.00000
      6      -4.4593      2.00000
      7      -4.0302      2.00000
      8      -3.9044      2.00000
      9      -2.5311      2.00000
     10      -2.4330      2.00000
     11      -0.8281      0.00000
     12      -0.7150      0.00000
     13       0.2660      0.00000
     14       0.5694      0.00000

 k-point   101 :       0.1333    0.4667    0.0000
  band No.  band energies     occupation 
      1     -14.5591      2.00000
      2     -14.4453      2.00000
      3      -9.1099      2.00000
      4      -8.9977      2.00000
      5      -4.8667      2.00000
      6      -4.6823      2.00000
      7      -4.2604      2.00000
      8      -4.1396      2.00000
      9      -2.8799      2.00000
     10      -2.6785      2.00000
     11      -0.5803      0.00000
     12      -0.3552      0.00000
     13       0.7807      0.00000
     14       0.8639      0.00000

 k-point   102 :       0.2000    0.4667    0.0000
  band No.  band energies     occupation 
      1     -14.5162      2.00000
      2     -14.4138      2.00000
      3      -8.9811      2.00000
      4      -8.8838      2.00000
      5      -5.3686      2.00000
      6      -5.0484      2.00000
      7      -4.4518      2.00000
      8      -4.2190      2.00000
      9      -3.3738      2.00000
     10      -3.0809      2.00000
     11      -0.0657      0.00000
     12       0.2881      0.00000
     13       0.9943      0.00000
     14       1.2173      0.00000

 k-point   103 :       0.2667    0.4667    0.0000
  band No.  band energies     occupation 
      1     -14.4644      2.00000
      2     -14.3781      2.00000
      3      -8.8119      2.00000
      4      -8.7361      2.00000
      5      -5.8323      2.00000
      6      -5.4947      2.00000
      7      -4.6510      2.00000
      8      -4.3897      2.00000
      9      -3.7007      2.00000
     10      -3.4329      2.00000
     11       0.4518      0.00000
     12       0.8104      0.00000
     13       1.3755      0.00000
     14       1.6150      0.00000

 k-point   104 :       0.3333    0.4667    0.0000
  band No.  band energies     occupation 
      1     -14.4111      2.00000
      2     -14.3454      2.00000
      3      -8.6193      2.00000
      4      -8.5707      2.00000
      5      -6.2099      2.00000
      6      -5.9021      2.00000
      7      -4.9429      2.00000
      8      -4.6857      2.00000
      9      -3.8074      2.00000
     10      -3.6120      2.00000
     11       0.8046      0.00000
     12       1.0796      0.00000
     13       1.9119      0.00000
     14       2.1754      0.00000

 k-point   105 :       0.4000    0.4667    0.0000
  band No.  band energies     occupation 
      1     -14.3644      2.00000
      2     -14.3231      2.00000
      3      -8.4365      2.00000
      4      -8.4153      2.00000
      5      -6.4673      2.00000
      6      -6.2414      2.00000
      7      -5.1906      2.00000
      8      -4.9992      2.00000
      9      -3.8037      2.00000
     10      -3.6851      2.00000
     11       1.0398      0.00000
     12       1.2106      0.00000
     13       2.3982      0.00000
     14       2.6208      0.00000

 k-point   106 :       0.4667    0.4667    0.0000
  band No.  band energies     occupation 
      1     -14.3316      2.00000
      2     -14.3175      2.00000
      3      -8.3183      2.00000
      4      -8.3142      2.00000
      5      -6.5658      2.00000
      6      -6.4806      2.00000
      7      -5.2926      2.00000
      8      -5.2215      2.00000
      9      -3.7679      2.00000
     10      -3.7279      2.00000
     11       1.1901      0.00000
     12       1.2481      0.00000
     13       2.6632      0.00000
     14       2.7846      0.00000

 k-point   107 :      -0.4667    0.4667    0.0000
  band No.  band energies     occupation 
      1     -14.3316      2.00000
      2     -14.3175      2.00000
      3      -8.3183      2.00000
      4      -8.3142      2.00000
      5      -6.5658      2.00000
      6      -6.4806      2.00000
      7      -5.2926      2.00000
      8      -5.2215      2.00000
      9      -3.7679      2.00000
     10      -3.7279      2.00000
     11       1.1901      0.00000
     12       1.2481      0.00000
     13       2.6632      0.00000
     14       2.7846      0.00000

 k-point   108 :      -0.4000    0.4667    0.0000
  band No.  band energies     occupation 
      1     -14.3644      2.00000
      2     -14.3231      2.00000
      3      -8.4365      2.00000
      4      -8.4153      2.00000
      5      -6.4673      2.00000
      6      -6.2414      2.00000
      7      -5.1906      2.00000
      8      -4.9992      2.00000
      9      -3.8037      2.00000
     10      -3.6851      2.00000
     11       1.0398      0.00000
     12       1.2106      0.00000
     13       2.3982      0.00000
     14       2.6208      0.00000

 k-point   109 :      -0.3333    0.4667    0.0000
  band No.  band energies     occupation 
      1     -14.4111      2.00000
      2     -14.3454      2.00000
      3      -8.6193      2.00000
      4      -8.5707      2.00000
      5      -6.2099      2.00000
      6      -5.9021      2.00000
      7      -4.9429      2.00000
      8      -4.6857      2.00000
      9      -3.8074      2.00000
     10      -3.6120      2.00000
     11       0.8046      0.00000
     12       1.0796      0.00000
     13       1.9119      0.00000
     14       2.1754      0.00000

 k-point   110 :      -0.2667    0.4667    0.0000
  band No.  band energies     occupation 
      1     -14.4644      2.00000
      2     -14.3781      2.00000
      3      -8.8119      2.00000
      4      -8.7361      2.00000
      5      -5.8323      2.00000
      6      -5.4947      2.00000
      7      -4.6510      2.00000
      8      -4.3897      2.00000
      9      -3.7007      2.00000
     10      -3.4329      2.00000
     11       0.4518      0.00000
     12       0.8104      0.00000
     13       1.3755      0.00000
     14       1.6150      0.00000

 k-point   111 :      -0.2000    0.4667    0.0000
  band No.  band energies     occupation 
      1     -14.5162      2.00000
      2     -14.4138      2.00000
      3      -8.9811      2.00000
      4      -8.8838      2.00000
      5      -5.3686      2.00000
      6      -5.0484      2.00000
      7      -4.4518      2.00000
      8      -4.2190      2.00000
      9      -3.3738      2.00000
     10      -3.0809      2.00000
     11      -0.0657      0.00000
     12       0.2881      0.00000
     13       0.9943      0.00000
     14       1.2173      0.00000

 k-point   112 :      -0.1333    0.4667    0.0000
  band No.  band energies     occupation 
      1     -14.5591      2.00000
      2     -14.4453      2.00000
      3      -9.1099      2.00000
      4      -8.9977      2.00000
      5      -4.8667      2.00000
      6      -4.6823      2.00000
      7      -4.2604      2.00000
      8      -4.1396      2.00000
      9      -2.8799      2.00000
     10      -2.6785      2.00000
     11      -0.5803      0.00000
     12      -0.3552      0.00000
     13       0.7807      0.00000
     14       0.8639      0.00000

 k-point   113 :      -0.0667    0.4667    0.0000
  band No.  band energies     occupation 
      1     -14.5872      2.00000
      2     -14.4667      2.00000
      3      -9.1898      2.00000
      4      -9.0691      2.00000
      5      -4.5680      2.00000
      6      -4.4593      2.00000
      7      -4.0302      2.00000
      8      -3.9044      2.00000
      9      -2.5311      2.00000
     10      -2.4330      2.00000
     11      -0.8281      0.00000
     12      -0.7150      0.00000
     13       0.2660      0.00000
     14       0.5694      0.00000


--------------------------------------------------------------------------------------------------------


 soft charge-density along one line, spin component           1
         0         1         2         3         4         5         6         7         8         9
 total charge-density along one line
 
 pseudopotential strength for first ion, spin component:           1
 30.094 -23.441   0.000  -0.089   0.037   0.000  -0.141   0.059
-23.441  28.121  -0.000   0.051  -0.021  -0.000   0.082  -0.034
  0.000  -0.000   6.333   0.000  -0.000   9.798   0.000  -0.000
 -0.089   0.051   0.000   6.331   0.002   0.000   9.794   0.003
  0.037  -0.021  -0.000   0.002   6.333  -0.000   0.003   9.797
  0.000  -0.000   9.798   0.000  -0.000  15.229   0.000  -0.000
 -0.141   0.082   0.000   9.794   0.003   0.000  15.222   0.004
  0.059  -0.034  -0.000   0.003   9.797  -0.000   0.004  15.228
 -0.000   0.000   0.008   0.000   0.000   0.012   0.000   0.000
  0.000  -0.000  -0.020   0.000   0.000  -0.031   0.000   0.000
 -0.003   0.004  -0.000  -0.023  -0.004  -0.000  -0.035  -0.007
  0.003  -0.002   0.000   0.009  -0.020   0.000   0.014  -0.031
 -0.000   0.000  -0.000  -0.000   0.009  -0.000  -0.000   0.014
 total augmentation occupancy for first ion, spin component:           1
  2.024  -0.015  -0.000   0.238  -0.094   0.000  -0.043   0.017   0.000   0.000   0.022   0.002  -0.000
 -0.015   0.009   0.000  -0.073   0.029  -0.000   0.019  -0.007   0.000  -0.000  -0.002   0.001  -0.001
 -0.000   0.000   1.506  -0.000   0.000  -0.405   0.000  -0.000   0.132  -0.043  -0.000  -0.000   0.000
  0.238  -0.073  -0.000   1.842   0.001   0.000  -0.485  -0.016  -0.000   0.000  -0.267  -0.020  -0.001
 -0.094   0.029   0.000   0.001   1.488  -0.000  -0.016  -0.393   0.000  -0.000  -0.085  -0.046  -0.007
  0.000  -0.000  -0.405   0.000  -0.000   0.117  -0.000   0.000  -0.035   0.012   0.000   0.000  -0.000
 -0.043   0.019   0.000  -0.485  -0.016  -0.000   0.140   0.008  -0.000  -0.000   0.074   0.005   0.000
  0.017  -0.007  -0.000  -0.016  -0.393   0.000   0.008   0.113  -0.000   0.000   0.023   0.013   0.002
  0.000   0.000   0.132  -0.000   0.000  -0.035  -0.000  -0.000   0.075   0.000  -0.000   0.000   0.000
  0.000  -0.000  -0.043   0.000  -0.000   0.012  -0.000   0.000   0.000   0.021  -0.000   0.000   0.000
  0.022  -0.002  -0.000  -0.267  -0.085   0.000   0.074   0.023  -0.000  -0.000   0.077   0.006   0.002
  0.002   0.001  -0.000  -0.020  -0.046   0.000   0.005   0.013   0.000   0.000   0.006   0.022   0.001
 -0.000  -0.001   0.000  -0.001  -0.007  -0.000   0.000   0.002   0.000   0.000   0.002   0.001   0.017


------------------------ aborting loop because EDIFF is reached ----------------------------------------


    CHARGE:  cpu time    0.4617: real time    0.4620
    FORLOC:  cpu time    0.0018: real time    0.0018
    FORNL :  cpu time    0.3232: real time    0.3234
    STRESS:  cpu time    0.6052: real time    0.6076
    FORCOR:  cpu time    0.0382: real time    0.0383
    FORHAR:  cpu time    0.0098: real time    0.0099
    MIXING:  cpu time    0.0009: real time    0.0009
    OFIELD:  cpu time    0.0000: real time    0.0000

  FORCE on cell =-STRESS in cart. coord.  units (eV):
  Direction    XX          YY          ZZ          XY          YZ          ZX
  --------------------------------------------------------------------------------------
  Alpha Z     9.45693     9.45693     9.45693
  Ewald    1597.73195  1602.83438 -2054.72358    -0.00000    -0.00000    -0.00039
  Hartree  1719.35701  1721.31909 -1672.41253    -0.00000     0.00000    -0.00007
  E(xc)     -77.64488   -77.66146   -78.86308     0.00000     0.00000     0.00000
  Local   -3569.79539 -3576.21245  3472.34596     0.00000    -0.00000     0.00042
  n-local   162.46206   162.67397   167.18663    -0.00000    -0.00000    -0.00004
  augment   -31.87560   -31.81279   -32.80323     0.00000     0.00000    -0.00000
  Kinetic   190.17699   189.29879   189.81136     0.00000     0.00000     0.00007
  Fock        0.00000     0.00000     0.00000     0.00000     0.00000     0.00000
  -------------------------------------------------------------------------------------
  Total      -0.13092    -0.10354    -0.00154    -0.00000     0.00000    -0.00001
  in kB      -0.55476    -0.43874    -0.00652    -0.00000     0.00000    -0.00003
  external pressure =       -0.33 kB  Pullay stress =        0.00 kB


 VOLUME and BASIS-vectors are now :
 -----------------------------------------------------------------------------
  energy-cutoff  :      600.00
  volume of cell :      378.10
      direct lattice vectors                 reciprocal lattice vectors
     4.404268549  0.000000000  0.000000000     0.227052458  0.000000000  0.000000000
     0.000000000  4.292477857  0.000000000     0.000000000  0.232965675  0.000000000
     0.000000000  0.000000000 20.000000000     0.000000000  0.000000000  0.050000000

  length of vectors
     4.404268549  4.292477857 20.000000000     0.227052458  0.232965675  0.050000000


 FORCES acting on ions
    electron-ion (+dipol)            ewald-force                    non-local-force                 convergence-correction
 -----------------------------------------------------------------------------------------------
   0.461E+01 0.560E-06 -.144E+03   -.622E+01 -.626E-06 0.148E+03   0.161E+01 0.567E-07 -.382E+01   0.339E-04 -.266E-08 0.952E-03
   0.461E+01 -.587E-06 0.144E+03   -.622E+01 0.667E-06 -.148E+03   0.161E+01 -.700E-07 0.382E+01   0.440E-04 0.160E-08 -.824E-03
   -.574E+01 -.627E-06 -.205E+03   0.622E+01 0.640E-06 0.207E+03   -.485E+00 0.981E-08 -.204E+01   0.463E-03 0.168E-07 0.396E-02
   -.574E+01 0.624E-06 0.205E+03   0.622E+01 -.681E-06 -.207E+03   -.485E+00 0.187E-07 0.204E+01   0.467E-03 0.683E-08 -.368E-02
 -----------------------------------------------------------------------------------------------
   -.224E+01 -.304E-07 -.536E-03   0.355E-14 0.533E-15 0.000E+00   0.224E+01 0.152E-07 0.126E-03   0.101E-02 0.226E-07 0.404E-03
 
 
 POSITION                                       TOTAL-FORCE (eV/Angst)
 -----------------------------------------------------------------------------------
      2.56916      3.21936     11.37580         0.000576     -0.000000     -0.000550
      0.36703      1.07312      8.62421         0.000578      0.000000      0.000404
      0.13551      1.07312     11.33865        -0.000579      0.000000      0.000041
      2.33765      3.21936      8.66133        -0.000574     -0.000000      0.000104
 -----------------------------------------------------------------------------------
    total drift:                                0.000105      0.000000     -0.000006


--------------------------------------------------------------------------------------------------------



  FREE ENERGIE OF THE ION-ELECTRON SYSTEM (eV)
  ---------------------------------------------------
  free  energy   TOTEN  =       -16.26407098 eV

  energy  without entropy=      -16.26407098  energy(sigma->0) =      -16.26407098
 
 d Force = 0.1720017E-05[ 0.240E-06, 0.320E-05]  d Energy = 0.2225739E-05-0.506E-06
 d Force =-0.2563655E+00[-0.256E+00,-0.256E+00]  d Ewald  =-0.2563655E+00 0.342E-08


--------------------------------------------------------------------------------------------------------


    POTLOK:  cpu time    0.0392: real time    0.0394


--------------------------------------------------------------------------------------------------------


 Conjugate gradient step on ions:
 trial-energy change:   -0.000002  1 .order   -0.000002   -0.000003   -0.000000
  (g-gl).g = 0.154E-05      g.g   = 0.135E-05  gl.gl    = 0.143E-05
 g(Force)  = 0.135E-05   g(Stress)= 0.000E+00 ortho     =-0.185E-06
 gamma     =   1.07841
 trial     =   2.77217
 opt step  =   2.99728  (harmonic =   2.99728) maximal distance =0.00070609
 next E    =   -16.264070   (d E  =  -0.00000)


--------------------------------------------------------------------------------------------------------


  
 reached required accuracy - stopping structural energy minimisation
 writing wavefunctions
     LOOP+:  cpu time   24.1589: real time   27.0391
    4ORBIT:  cpu time    0.0000: real time    0.0000

 total amount of memory used by VASP MPI-rank0    63270. kBytes
=======================================================================

   base      :      30000. kBytes
   nonl-proj :      12491. kBytes
   fftplans  :       2678. kBytes
   grid      :       4349. kBytes
   one-center:          8. kBytes
   wavefun   :      13744. kBytes
 
  
  
 General timing and accounting informations for this job:
 ========================================================
  
                  Total CPU time used (sec):      336.090
                            User time (sec):      335.300
                          System time (sec):        0.790
                         Elapsed time (sec):      358.226
  
                   Maximum memory used (kb):      227924.
                   Average memory used (kb):           0.
  
                          Minor page faults:        76783
                          Major page faults:          130
                 Voluntary context switches:        12589
