Si                                      
           1
     5.623800    0.000000    0.000000
     0.000000    5.468728    0.000000
     0.000000    0.000000    5.468728
   Si
   8
Direct configuration=     1
   0.50000000  0.50000000  0.00000000
   0.50000000  0.00000000  0.50000000
   0.00000000  0.50000000  0.50000000
   0.00000000  0.00000000  0.00000000
   0.25000000  0.25000000  0.75000000
   0.25000000  0.75000000  0.25000000
   0.75000000  0.25000000  0.25000000
   0.75000000  0.75000000  0.75000000
Si                                      
           1
     5.623800    0.000000    0.000000
     0.000000    5.431559    0.000000
     0.000000    0.000000    5.431559
   Si
   8
Direct configuration=     2
   0.50000000  0.50000000 -0.00000000
   0.50000000 -0.00000000  0.50000000
  -0.00000000  0.50000000  0.50000000
  -0.00000000  0.00000000  0.00000000
   0.25000000  0.25000000  0.75000000
   0.25000000  0.75000000  0.25000000
   0.75000000  0.25000000  0.25000000
   0.75000000  0.75000000  0.75000000
Si                                      
           1
     5.623800    0.000000    0.000000
     0.000000    5.439379    0.000000
     0.000000    0.000000    5.439379
   Si
   8
Direct configuration=     3
   0.50000000  0.50000000 -0.00000000
   0.50000000 -0.00000000  0.50000000
  -0.00000000  0.50000000  0.50000000
  -0.00000000  0.00000000  0.00000000
   0.25000000  0.25000000  0.75000000
   0.25000000  0.75000000  0.25000000
   0.75000000  0.25000000  0.25000000
   0.75000000  0.75000000  0.75000000
