 vasp.5.4.4.18Apr17-6-g9f103f2a35 (build Oct 01 2024 10:11:53) complex          
  
 executed on              Shaheen date 2024.10.27  10:07:38
 running on  192 total cores
 distrk:  each k-point on  192 cores,    1 groups
 distr:  one band on NCORES_PER_BAND=  32 cores,    6 groups


--------------------------------------------------------------------------------------------------------


 INCAR:
 POTCAR:    PAW_PBE B 06Sep2000                   
 POTCAR:    PAW_PBE O 08Apr2002                   

 ----------------------------------------------------------------------------- 
|                                                                             |
|           W    W    AA    RRRRR   N    N  II  N    N   GGGG   !!!           |
|           W    W   A  A   R    R  NN   N  II  NN   N  G    G  !!!           |
|           W    W  A    A  R    R  N N  N  II  N N  N  G       !!!           |
|           W WW W  AAAAAA  RRRRR   N  N N  II  N  N N  G  GGG   !            |
|           WW  WW  A    A  R   R   N   NN  II  N   NN  G    G                |
|           W    W  A    A  R    R  N    N  II  N    N   GGGG   !!!           |
|                                                                             |
|      For optimal performance we recommend to set                            |
|        NCORE= 4 - approx SQRT( number of cores)                             |
|      NCORE specifies how many cores store one orbital (NPAR=cpu/NCORE).     |
|      This setting can  greatly improve the performance of VASP for DFT.     |
|      The default,   NCORE=1            might be grossly inefficient         |
|      on modern multi-core architectures or massively parallel machines.     |
|      Do your own testing !!!!                                               |
|      Unfortunately you need to use the default for GW and RPA calculations. |
|      (for HF NCORE is supported but not extensively tested yet)             |
|                                                                             |
 ----------------------------------------------------------------------------- 

 POTCAR:    PAW_PBE B 06Sep2000                   
   VRHFIN =B: s2p1                                                              
   LEXCH  = PE                                                                  
   EATOM  =    71.1703 eV,    5.2309 Ry                                         
                                                                                
   TITEL  = PAW_PBE B 06Sep2000                                                 
   LULTRA =        F    use ultrasoft PP ?                                      
   IUNSCR =        1    unscreen: 0-lin 1-nonlin 2-no                           
   RPACOR =    1.200    partial core radius                                     
   POMASS =   10.811; ZVAL   =    3.000    mass and valenz                      
   RCORE  =    1.700    outmost cutoff radius                                   
   RWIGS  =    1.710; RWIGS  =    0.905    wigner-seitz radius (au A)           
   ENMAX  =  318.614; ENMIN  =  238.960 eV                                      
   ICORE  =        2    local potential                                         
   LCOR   =        T    correct aug charges                                     
   LPAW   =        T    paw PP                                                  
   EAUG   =  535.514                                                            
   DEXC   =    0.000                                                            
   RMAX   =    1.732    core radius for proj-oper                               
   RAUG   =    1.300    factor for augmentation sphere                          
   RDEP   =    1.757    radius for radial grids                                 
   RDEPT  =    1.436    core radius for aug-charge                              
                                                                                
   Atomic configuration                                                         
    4 entries                                                                   
     n  l   j            E        occ.                                          
     1  0  0.50      -180.5896   2.0000                                         
     2  0  0.50        -9.4431   2.0000                                         
     2  1  0.50        -3.6068   1.0000                                         
     3  2  1.50        -4.0817   0.0000                                         
   Description                                                                  
     l       E           TYP  RCUT    TYP  RCUT                                 
     0     -9.4430752     23  1.500                                             
     0      0.8675899     23  1.500                                             
     1     -3.6067955     23  1.700                                             
     1      6.1086146     23  1.700                                             
     2     -4.0817478      7  1.700                                             
  local pseudopotential read in
  partial core-charges read in
  partial kinetic energy density read in
  atomic valenz-charges read in
  non local Contribution for L=           0  read in
    real space projection operators read in
  non local Contribution for L=           0  read in
    real space projection operators read in
  non local Contribution for L=           1  read in
    real space projection operators read in
  non local Contribution for L=           1  read in
    real space projection operators read in
    PAW grid and wavefunctions read in
 
   number of l-projection  operators is LMAX  =           4
   number of lm-projection operators is LMMAX =           8
 
 POTCAR:    PAW_PBE O 08Apr2002                   
   VRHFIN =O: s2p4                                                              
   LEXCH  = PE                                                                  
   EATOM  =   432.3788 eV,   31.7789 Ry                                         
                                                                                
   TITEL  = PAW_PBE O 08Apr2002                                                 
   LULTRA =        F    use ultrasoft PP ?                                      
   IUNSCR =        1    unscreen: 0-lin 1-nonlin 2-no                           
   RPACOR =    1.200    partial core radius                                     
   POMASS =   16.000; ZVAL   =    6.000    mass and valenz                      
   RCORE  =    1.520    outmost cutoff radius                                   
   RWIGS  =    1.550; RWIGS  =    0.820    wigner-seitz radius (au A)           
   ENMAX  =  400.000; ENMIN  =  300.000 eV                                      
   ICORE  =        2    local potential                                         
   LCOR   =        T    correct aug charges                                     
   LPAW   =        T    paw PP                                                  
   EAUG   =  605.392                                                            
   DEXC   =    0.000                                                            
   RMAX   =    1.553    core radius for proj-oper                               
   RAUG   =    1.300    factor for augmentation sphere                          
   RDEP   =    1.550    radius for radial grids                                 
   RDEPT  =    1.329    core radius for aug-charge                              
                                                                                
   Atomic configuration                                                         
    4 entries                                                                   
     n  l   j            E        occ.                                          
     1  0  0.50      -514.6923   2.0000                                         
     2  0  0.50       -23.9615   2.0000                                         
     2  1  0.50        -9.0305   4.0000                                         
     3  2  1.50        -9.5241   0.0000                                         
   Description                                                                  
     l       E           TYP  RCUT    TYP  RCUT                                 
     0    -23.9615318     23  1.200                                             
     0     -9.5240782     23  1.200                                             
     1     -9.0304911     23  1.520                                             
     1      8.1634956     23  1.520                                             
     2     -9.5240782      7  1.500                                             
  local pseudopotential read in
  partial core-charges read in
  partial kinetic energy density read in
  kinetic energy density of atom read in
  atomic valenz-charges read in
  non local Contribution for L=           0  read in
    real space projection operators read in
  non local Contribution for L=           0  read in
    real space projection operators read in
  non local Contribution for L=           1  read in
    real space projection operators read in
  non local Contribution for L=           1  read in
    real space projection operators read in
    PAW grid and wavefunctions read in
 
   number of l-projection  operators is LMAX  =           4
   number of lm-projection operators is LMMAX =           8
 
  PAW_PBE B 06Sep2000                   :
 energy of atom  1       EATOM=  -71.1703
 kinetic energy error for atom=    0.0007 (will be added to EATOM!!)
  PAW_PBE O 08Apr2002                   :
 energy of atom  2       EATOM= -432.3788
 kinetic energy error for atom=    0.0168 (will be added to EATOM!!)
 
 
 POSCAR: B  O                                    
  positions in direct lattice
  velocities in cartesian coordinates
 exchange correlation table for  LEXCH =        8
   RHO(1)=    0.500       N(1)  =     2000
   RHO(2)=  100.500       N(2)  =     4000
 


--------------------------------------------------------------------------------------------------------


 ion  position               nearest neighbor table
   1  0.170  0.303  0.527-   6 1.37   9 1.37   7 1.38
   2  0.836  0.303  0.473-   5 1.37   9 1.37   8 1.38
   3  0.670  0.803  0.473-   8 1.37  10 1.37   5 1.38
   4  0.336  0.803  0.527-   7 1.37  10 1.37   6 1.38
   5  0.686  0.501  0.459-   2 1.37   3 1.38
   6  0.321  0.501  0.541-   1 1.37   4 1.38
   7  0.186  0.001  0.541-   4 1.37   1 1.38
   8  0.821  0.001  0.459-   3 1.37   2 1.38
   9  0.003  0.413  0.500-   1 1.37   2 1.37
  10  0.503  0.913  0.500-   3 1.37   4 1.37
 

IMPORTANT INFORMATION: All symmetrisations will be switched off!
NOSYMM: (Re-)initialisation of all symmetry stuff for point group C_1.

 
 
 KPOINTS: K-Spacing Value to Generate K-Mesh: 0.02

Automatic generation of k-mesh.
Space group operators:
 irot       det(A)        alpha          n_x          n_y          n_z        tau_x        tau_y        tau_z
    1     1.000000     0.000000     1.000000     0.000000     0.000000     0.000000     0.000000     0.000000
 
 Subroutine IBZKPT returns following result:
 ===========================================
 
 Found     28 irreducible k-points:
 
 Following reciprocal coordinates:
            Coordinates               Weight
  0.000000  0.000000  0.000000      1.000000
  0.166667  0.000000  0.000000      2.000000
  0.333333  0.000000  0.000000      2.000000
  0.500000  0.000000  0.000000      1.000000
  0.000000  0.111111  0.000000      2.000000
  0.166667  0.111111  0.000000      2.000000
  0.333333  0.111111  0.000000      2.000000
  0.500000  0.111111  0.000000      2.000000
 -0.333333  0.111111  0.000000      2.000000
 -0.166667  0.111111  0.000000      2.000000
  0.000000  0.222222  0.000000      2.000000
  0.166667  0.222222  0.000000      2.000000
  0.333333  0.222222  0.000000      2.000000
  0.500000  0.222222  0.000000      2.000000
 -0.333333  0.222222  0.000000      2.000000
 -0.166667  0.222222  0.000000      2.000000
  0.000000  0.333333  0.000000      2.000000
  0.166667  0.333333  0.000000      2.000000
  0.333333  0.333333  0.000000      2.000000
  0.500000  0.333333  0.000000      2.000000
 -0.333333  0.333333  0.000000      2.000000
 -0.166667  0.333333  0.000000      2.000000
  0.000000  0.444444  0.000000      2.000000
  0.166667  0.444444  0.000000      2.000000
  0.333333  0.444444  0.000000      2.000000
  0.500000  0.444444  0.000000      2.000000
 -0.333333  0.444444  0.000000      2.000000
 -0.166667  0.444444  0.000000      2.000000
 
 Following cartesian coordinates:
            Coordinates               Weight
  0.000000  0.000000  0.000000      1.000000
  0.025133  0.000000  0.000000      2.000000
  0.050266  0.000000  0.000000      2.000000
  0.075399  0.000000  0.000000      1.000000
  0.000000  0.025056  0.000000      2.000000
  0.025133  0.025056  0.000000      2.000000
  0.050266  0.025056  0.000000      2.000000
  0.075399  0.025056  0.000000      2.000000
 -0.050266  0.025056  0.000000      2.000000
 -0.025133  0.025056  0.000000      2.000000
  0.000000  0.050113  0.000000      2.000000
  0.025133  0.050113  0.000000      2.000000
  0.050266  0.050113  0.000000      2.000000
  0.075399  0.050113  0.000000      2.000000
 -0.050266  0.050113  0.000000      2.000000
 -0.025133  0.050113  0.000000      2.000000
  0.000000  0.075169  0.000000      2.000000
  0.025133  0.075169  0.000000      2.000000
  0.050266  0.075169  0.000000      2.000000
  0.075399  0.075169  0.000000      2.000000
 -0.050266  0.075169  0.000000      2.000000
 -0.025133  0.075169  0.000000      2.000000
  0.000000  0.100225  0.000000      2.000000
  0.025133  0.100225  0.000000      2.000000
  0.050266  0.100225  0.000000      2.000000
  0.075399  0.100225  0.000000      2.000000
 -0.050266  0.100225  0.000000      2.000000
 -0.025133  0.100225  0.000000      2.000000
 
 
 Subroutine IBZKPT_HF returns following result:
 ==============================================
 
 Found     54 k-points in 1st BZ
 the following     54 k-points will be used (e.g. in the exchange kernel)
 Following reciprocal coordinates:   # in IRBZ
  0.000000  0.000000  0.000000    0.01851852   1 t-inv F
  0.166667  0.000000  0.000000    0.01851852   2 t-inv F
  0.333333  0.000000  0.000000    0.01851852   3 t-inv F
  0.500000  0.000000  0.000000    0.01851852   4 t-inv F
  0.000000  0.111111  0.000000    0.01851852   5 t-inv F
  0.166667  0.111111  0.000000    0.01851852   6 t-inv F
  0.333333  0.111111  0.000000    0.01851852   7 t-inv F
  0.500000  0.111111  0.000000    0.01851852   8 t-inv F
 -0.333333  0.111111  0.000000    0.01851852   9 t-inv F
 -0.166667  0.111111  0.000000    0.01851852  10 t-inv F
  0.000000  0.222222  0.000000    0.01851852  11 t-inv F
  0.166667  0.222222  0.000000    0.01851852  12 t-inv F
  0.333333  0.222222  0.000000    0.01851852  13 t-inv F
  0.500000  0.222222  0.000000    0.01851852  14 t-inv F
 -0.333333  0.222222  0.000000    0.01851852  15 t-inv F
 -0.166667  0.222222  0.000000    0.01851852  16 t-inv F
  0.000000  0.333333  0.000000    0.01851852  17 t-inv F
  0.166667  0.333333  0.000000    0.01851852  18 t-inv F
  0.333333  0.333333  0.000000    0.01851852  19 t-inv F
  0.500000  0.333333  0.000000    0.01851852  20 t-inv F
 -0.333333  0.333333  0.000000    0.01851852  21 t-inv F
 -0.166667  0.333333  0.000000    0.01851852  22 t-inv F
  0.000000  0.444444  0.000000    0.01851852  23 t-inv F
  0.166667  0.444444  0.000000    0.01851852  24 t-inv F
  0.333333  0.444444  0.000000    0.01851852  25 t-inv F
  0.500000  0.444444  0.000000    0.01851852  26 t-inv F
 -0.333333  0.444444  0.000000    0.01851852  27 t-inv F
 -0.166667  0.444444  0.000000    0.01851852  28 t-inv F
 -0.166667  0.000000  0.000000    0.01851852   2 t-inv T
 -0.333333  0.000000  0.000000    0.01851852   3 t-inv T
  0.000000 -0.111111  0.000000    0.01851852   5 t-inv T
 -0.166667 -0.111111  0.000000    0.01851852   6 t-inv T
 -0.333333 -0.111111  0.000000    0.01851852   7 t-inv T
 -0.500000 -0.111111  0.000000    0.01851852   8 t-inv T
  0.333333 -0.111111  0.000000    0.01851852   9 t-inv T
  0.166667 -0.111111  0.000000    0.01851852  10 t-inv T
  0.000000 -0.222222  0.000000    0.01851852  11 t-inv T
 -0.166667 -0.222222  0.000000    0.01851852  12 t-inv T
 -0.333333 -0.222222  0.000000    0.01851852  13 t-inv T
 -0.500000 -0.222222  0.000000    0.01851852  14 t-inv T
  0.333333 -0.222222  0.000000    0.01851852  15 t-inv T
  0.166667 -0.222222  0.000000    0.01851852  16 t-inv T
  0.000000 -0.333333  0.000000    0.01851852  17 t-inv T
 -0.166667 -0.333333  0.000000    0.01851852  18 t-inv T
 -0.333333 -0.333333  0.000000    0.01851852  19 t-inv T
 -0.500000 -0.333333  0.000000    0.01851852  20 t-inv T
  0.333333 -0.333333  0.000000    0.01851852  21 t-inv T
  0.166667 -0.333333  0.000000    0.01851852  22 t-inv T
  0.000000 -0.444444  0.000000    0.01851852  23 t-inv T
 -0.166667 -0.444444  0.000000    0.01851852  24 t-inv T
 -0.333333 -0.444444  0.000000    0.01851852  25 t-inv T
 -0.500000 -0.444444  0.000000    0.01851852  26 t-inv T
  0.333333 -0.444444  0.000000    0.01851852  27 t-inv T
  0.166667 -0.444444  0.000000    0.01851852  28 t-inv T


--------------------------------------------------------------------------------------------------------




 Dimension of arrays:
   k-points           NKPTS =     28   k-points in BZ     NKDIM =     28   number of bands    NBANDS=     30
   number of dos      NEDOS =    301   number of ions     NIONS =     10
   non local maximal  LDIM  =      4   non local SUM 2l+1 LMDIM =      8
   total plane-waves  NPLWV = 373248
   max r-space proj   IRMAX =      1   max aug-charges    IRDMAX=   8528
   dimension x,y,z NGX =    54 NGY =   36 NGZ =  192
   dimension x,y,z NGXF=   108 NGYF=   72 NGZF=  384
   support grid    NGXF=   108 NGYF=   72 NGZF=  384
   ions per type =               4   6
   NGX,Y,Z   is equivalent  to a cutoff of  13.54, 13.50, 13.43 a.u.
   NGXF,Y,Z  is equivalent  to a cutoff of  27.08, 26.99, 26.86 a.u.

 SYSTEM =  unknown system                          
 POSCAR =  B  O                                    

 Startparameter for this run:
   NWRITE =      2    write-flag & timer
   PREC   = accura    normal or accurate (medium, high low for compatibility)
   ISTART =      0    job   : 0-new  1-cont  2-samecut
   ICHARG =      2    charge: 1-file 2-atom 10-const
   ISPIN  =      1    spin polarized calculation?
   LNONCOLLINEAR =      F non collinear calculations
   LSORBIT =      F    spin-orbit coupling
   INIWAV =      1    electr: 0-lowe 1-rand  2-diag
   LASPH  =      F    aspherical Exc in radial PAW
   METAGGA=      F    non-selfconsistent MetaGGA calc.

 Electronic Relaxation 1
   ENCUT  =  600.0 eV  44.10 Ry    6.64 a.u.  13.24  8.86 47.46*2*pi/ulx,y,z
   ENINI  =  600.0     initial cutoff
   ENAUG  =  605.4 eV  augmentation charge cutoff
   NELM   =     60;   NELMIN=  2; NELMDL= -5     # of ELM steps 
   EDIFF  = 0.1E-07   stopping-criterion for ELM
   LREAL  =      F    real-space projection
   NLSPLINE    = F    spline interpolate recip. space projectors
   LCOMPAT=      F    compatible to vasp.4.4
   GGA_COMPAT  = T    GGA compatible to vasp.4.4-vasp.4.6
   LMAXPAW     = -100 max onsite density
   LMAXMIX     =    2 max onsite mixed and CHGCAR
   VOSKOWN=      0    Vosko Wilk Nusair interpolation
   ROPT   =    0.00000   0.00000
 Ionic relaxation
   EDIFFG = -.1E-02   stopping-criterion for IOM
   NSW    =      1    number of steps for IOM
   NBLOCK =      1;   KBLOCK =      1    inner block; outer block 
   IBRION =      7    ionic relax: 0-MD 1-quasi-New 2-CG
   NFREE  =      0    steps in history (QN), initial steepest desc. (CG)
   ISIF   =      2    stress and relaxation
   IWAVPR =     11    prediction:  0-non 1-charg 2-wave 3-comb
   ISYM   =      0    0-nonsym 1-usesym 2-fastsym
   LCORR  =      T    Harris-Foulkes like correction to forces

   POTIM  = 0.5000    time-step for ionic-motion
   TEIN   =    0.0    initial temperature
   TEBEG  =    0.0;   TEEND  =   0.0 temperature during run
   SMASS  =  -3.00    Nose mass-parameter (am)
   estimated Nose-frequenzy (Omega)   =  0.10E-29 period in steps =****** mass=  -0.100E-26a.u.
   SCALEE = 1.0000    scale energy and forces
   NPACO  =    256;   APACO  = 16.0  distance and # of slots for P.C.
   PSTRESS=    0.0 pullay stress

  Mass of Ions in am
   POMASS =  10.81 16.00
  Ionic Valenz
   ZVAL   =   3.00  6.00
  Atomic Wigner-Seitz radii
   RWIGS  =  -1.00 -1.00
  virtual crystal weights 
   VCA    =   1.00  1.00
   NELECT =      48.0000    total number of electrons
   NUPDOWN=      -1.0000    fix difference up-down

 DOS related values:
   EMIN   =  10.00;   EMAX   =-10.00  energy-range for DOS
   EFERMI =   0.00
   ISMEAR =     0;   SIGMA  =   0.10  broadening in eV -4-tet -1-fermi 0-gaus

 Electronic relaxation 2 (details)
   IALGO  =     38    algorithm
   LDIAG  =      T    sub-space diagonalisation (order eigenvalues)
   LSUBROT=      F    optimize rotation matrix (better conditioning)
   TURBO    =      0    0=normal 1=particle mesh
   IRESTART =      0    0=no restart 2=restart with 2 vectors
   NREBOOT  =      0    no. of reboots
   NMIN     =      0    reboot dimension
   EREF     =   0.00    reference energy to select bands
   IMIX   =      4    mixing-type and parameters
     AMIX     =   0.40;   BMIX     =  1.00
     AMIX_MAG =   1.60;   BMIX_MAG =  1.00
     AMIN     =   0.10
     WC   =   100.;   INIMIX=   1;  MIXPRE=   1;  MAXMIX= -45

 Intra band minimization:
   WEIMIN = 0.0010     energy-eigenvalue tresh-hold
   EBREAK =  0.83E-10  absolut break condition
   DEPER  =   0.30     relativ break condition  

   TIME   =   0.40     timestep for ELM

  volume/ion in A,a.u.               =      69.88       471.59
  Fermi-wavevector in a.u.,A,eV,Ry     =   0.670449  1.266965  6.115841  0.449502
  Thomas-Fermi vector in A             =   1.745970
 
 Write flags
   LWAVE        =      T    write WAVECAR
   LDOWNSAMPLE  =      F    k-point downsampling of WAVECAR
   LCHARG       =      T    write CHGCAR
   LVTOT        =      F    write LOCPOT, total local potential
   LVHAR        =      F    write LOCPOT, Hartree potential only
   LELF         =      F    write electronic localiz. function (ELF)
   LORBIT       =      0    0 simple, 1 ext, 2 COOP (PROOUT), +10 PAW based schemes


 Dipole corrections
   LMONO  =      F    monopole corrections only (constant potential shift)
   LDIPOL =      T    correct potential (dipole corrections)
   IDIPOL =      3    1-x, 2-y, 3-z, 4-all directions 
   EPSILON=  1.0000000 bulk dielectric constant

 Exchange correlation treatment:
   GGA     =    PE    GGA type
   LEXCH   =     8    internal setting for exchange type
   VOSKOWN=      0    Vosko Wilk Nusair interpolation
   LHFCALC =     F    Hartree Fock is set to
   LHFONE  =     F    Hartree Fock one center treatment
   AEXX    =    0.0000 exact exchange contribution

 Linear response parameters
   LEPSILON=     T    determine dielectric tensor
   LRPA    =     F    only Hartree local field effects (RPA)
   LNABLA  =     F    use nabla operator in PAW spheres
   LVEL    =     F    velocity operator in full k-point grid
   LINTERFAST=   F  fast interpolation
   KINTER  =     0    interpolate to denser k-point grid
   CSHIFT  =0.1000    complex shift for real part using Kramers Kronig
   OMEGAMAX=  -1.0    maximum frequency
   DEG_THRESHOLD= 0.2000000E-02 threshold for treating states as degnerate
   RTIME   =   -0.100 relaxation time in fs
  (WPLASMAI=    0.000 imaginary part of plasma frequency in eV, 0.658/RTIME)
   DFIELD  = 0.0000000 0.0000000 0.0000000 field for delta impulse in time
 
 Orbital magnetization related:
   ORBITALMAG=     F  switch on orbital magnetization
   LCHIMAG   =     F  perturbation theory with respect to B field
   DQ        =  0.001000  dq finite difference perturbation B field
   LLRAUG    =     F  two centre corrections for induced B field



--------------------------------------------------------------------------------------------------------


 linear response
 charge density and potential will be updated during run
 non-spin polarized calculation
 Variant of blocked Davidson
 Davidson routine will perform the subspace rotation
 perform sub-space diagonalisation
    after iterative eigenvector-optimisation
 modified Broyden-mixing scheme, WC =      100.0
 initial mixing is a Kerker type mixing with AMIX =  0.4000 and BMIX =      1.0000
 Hartree-type preconditioning will be used
 using additional bands            6
 reciprocal scheme for non local part
 use partial core corrections
 calculate Harris-corrections to forces 
   (improved forces if not selfconsistent)
 use gradient corrections 
 use of overlap-Matrix (Vanderbilt PP)
 Gauss-broadening in eV      SIGMA  =   0.10


--------------------------------------------------------------------------------------------------------


  energy-cutoff  :      600.00
  volume of cell :      698.83
      direct lattice vectors                 reciprocal lattice vectors
     6.631414582  0.000000000  0.000000000     0.150797388  0.000000000  0.000000000
     0.000000000  4.434446846  0.000000000     0.000000000  0.225507269  0.000000000
     0.000000000  0.000000000 23.764200230     0.000000000  0.000000000  0.042080103

  length of vectors
     6.631414582  4.434446846 23.764200230     0.150797388  0.225507269  0.042080103


 
 k-points in units of 2pi/SCALE and weight: K-Spacing Value to Generate K-Mesh: 0.02
   0.00000000  0.00000000  0.00000000       0.019
   0.02513290  0.00000000  0.00000000       0.037
   0.05026580  0.00000000  0.00000000       0.037
   0.07539869  0.00000000  0.00000000       0.019
   0.00000000  0.02505636  0.00000000       0.037
   0.02513290  0.02505636  0.00000000       0.037
   0.05026580  0.02505636  0.00000000       0.037
   0.07539869  0.02505636  0.00000000       0.037
  -0.05026580  0.02505636  0.00000000       0.037
  -0.02513290  0.02505636  0.00000000       0.037
   0.00000000  0.05011273  0.00000000       0.037
   0.02513290  0.05011273  0.00000000       0.037
   0.05026580  0.05011273  0.00000000       0.037
   0.07539869  0.05011273  0.00000000       0.037
  -0.05026580  0.05011273  0.00000000       0.037
  -0.02513290  0.05011273  0.00000000       0.037
   0.00000000  0.07516909  0.00000000       0.037
   0.02513290  0.07516909  0.00000000       0.037
   0.05026580  0.07516909  0.00000000       0.037
   0.07539869  0.07516909  0.00000000       0.037
  -0.05026580  0.07516909  0.00000000       0.037
  -0.02513290  0.07516909  0.00000000       0.037
   0.00000000  0.10022545  0.00000000       0.037
   0.02513290  0.10022545  0.00000000       0.037
   0.05026580  0.10022545  0.00000000       0.037
   0.07539869  0.10022545  0.00000000       0.037
  -0.05026580  0.10022545  0.00000000       0.037
  -0.02513290  0.10022545  0.00000000       0.037
 
 k-points in reciprocal lattice and weights: K-Spacing Value to Generate K-Mesh: 0.02
   0.00000000  0.00000000  0.00000000       0.019
   0.16666667  0.00000000  0.00000000       0.037
   0.33333333  0.00000000  0.00000000       0.037
   0.50000000  0.00000000  0.00000000       0.019
   0.00000000  0.11111111  0.00000000       0.037
   0.16666667  0.11111111  0.00000000       0.037
   0.33333333  0.11111111  0.00000000       0.037
   0.50000000  0.11111111  0.00000000       0.037
  -0.33333333  0.11111111  0.00000000       0.037
  -0.16666667  0.11111111  0.00000000       0.037
   0.00000000  0.22222222  0.00000000       0.037
   0.16666667  0.22222222  0.00000000       0.037
   0.33333333  0.22222222  0.00000000       0.037
   0.50000000  0.22222222  0.00000000       0.037
  -0.33333333  0.22222222  0.00000000       0.037
  -0.16666667  0.22222222  0.00000000       0.037
   0.00000000  0.33333333  0.00000000       0.037
   0.16666667  0.33333333  0.00000000       0.037
   0.33333333  0.33333333  0.00000000       0.037
   0.50000000  0.33333333  0.00000000       0.037
  -0.33333333  0.33333333  0.00000000       0.037
  -0.16666667  0.33333333  0.00000000       0.037
   0.00000000  0.44444444  0.00000000       0.037
   0.16666667  0.44444444  0.00000000       0.037
   0.33333333  0.44444444  0.00000000       0.037
   0.50000000  0.44444444  0.00000000       0.037
  -0.33333333  0.44444444  0.00000000       0.037
  -0.16666667  0.44444444  0.00000000       0.037
 
 position of ions in fractional coordinates (direct lattice) 
   0.17036225  0.30292587  0.52737142
   0.83622419  0.30292853  0.47261551
   0.67036144  0.80292676  0.47262762
   0.33622480  0.80292875  0.52738357
   0.68586161  0.50123961  0.45876644
   0.32069427  0.50124677  0.54123875
   0.18586375  0.00124148  0.54123223
   0.82069583  0.00124541  0.45875981
   0.00332011  0.41320440  0.49998168
   0.50332040  0.91320243  0.50001735
 
 position of ions in cartesian coordinates  (Angst):
   1.12974270  1.34330866 12.53256002
   5.54534927  1.34332045 11.23132964
   4.44544461  3.56053602 11.23161738
   2.22964604  3.56054488 12.53284869
   4.54823266  2.22272042 10.90221754
   2.12665665  2.22275218 12.86210600
   1.23253958  0.00550528 12.86195110
   5.44237429  0.00552270 10.90205990
   0.02201701  1.83233295 11.88166483
   3.33772625  4.04954763 11.88251248
 


--------------------------------------------------------------------------------------------------------


 k-point  1 :   0.0000 0.0000 0.0000  plane waves:   23261
 k-point  2 :   0.1667 0.0000 0.0000  plane waves:   23275
 k-point  3 :   0.3333 0.0000 0.0000  plane waves:   23326
 k-point  4 :   0.5000 0.0000 0.0000  plane waves:   23346
 k-point  5 :   0.0000 0.1111 0.0000  plane waves:   23273
 k-point  6 :   0.1667 0.1111 0.0000  plane waves:   23297
 k-point  7 :   0.3333 0.1111 0.0000  plane waves:   23313
 k-point  8 :   0.5000 0.1111 0.0000  plane waves:   23310
 k-point  9 :  -0.3333 0.1111 0.0000  plane waves:   23313
 k-point 10 :  -0.1667 0.1111 0.0000  plane waves:   23297
 k-point 11 :   0.0000 0.2222 0.0000  plane waves:   23298
 k-point 12 :   0.1667 0.2222 0.0000  plane waves:   23318
 k-point 13 :   0.3333 0.2222 0.0000  plane waves:   23295
 k-point 14 :   0.5000 0.2222 0.0000  plane waves:   23338
 k-point 15 :  -0.3333 0.2222 0.0000  plane waves:   23295
 k-point 16 :  -0.1667 0.2222 0.0000  plane waves:   23318
 k-point 17 :   0.0000 0.3333 0.0000  plane waves:   23366
 k-point 18 :   0.1667 0.3333 0.0000  plane waves:   23361
 k-point 19 :   0.3333 0.3333 0.0000  plane waves:   23314
 k-point 20 :   0.5000 0.3333 0.0000  plane waves:   23342
 k-point 21 :  -0.3333 0.3333 0.0000  plane waves:   23314
 k-point 22 :  -0.1667 0.3333 0.0000  plane waves:   23361
 k-point 23 :   0.0000 0.4444 0.0000  plane waves:   23394
 k-point 24 :   0.1667 0.4444 0.0000  plane waves:   23355
 k-point 25 :   0.3333 0.4444 0.0000  plane waves:   23336
 k-point 26 :   0.5000 0.4444 0.0000  plane waves:   23354
 k-point 27 :  -0.3333 0.4444 0.0000  plane waves:   23336
 k-point 28 :  -0.1667 0.4444 0.0000  plane waves:   23355

 maximum and minimum number of plane-waves per node :       790      692

 maximum number of plane-waves:     23394
 maximum index in each direction: 
   IXMAX=   13   IYMAX=    8   IZMAX=   47
   IXMIN=  -13   IYMIN=   -9   IZMIN=  -47


 parallel 3D FFT for wavefunctions:
    minimum data exchange during FFTs selected (reduces bandwidth)
 parallel 3D FFT for charge:
    minimum data exchange during FFTs selected (reduces bandwidth)


 total amount of memory used by VASP MPI-rank0    37936. kBytes
=======================================================================

   base      :      30000. kBytes
   nonl-proj :       2808. kBytes
   fftplans  :       1311. kBytes
   grid      :       2108. kBytes
   one-center:          3. kBytes
   wavefun   :       1706. kBytes
 
     INWAV:  cpu time    0.0000: real time    0.0000
 Broyden mixing: mesh for mixing (old mesh)
   NGX = 27   NGY = 17   NGZ = 95
  (NGX  =108   NGY  = 72   NGZ  =384)
  gives a total of  43605 points

 initial charge density was supplied:
 charge density of overlapping atoms calculated
 number of electron      48.0000000 magnetization 
 keeping initial charge density in first step


--------------------------------------------------------------------------------------------------------


 Maximum index for augmentation-charges          429 (set IRDMAX)


--------------------------------------------------------------------------------------------------------


 First call to EWALD:  gamma=   0.200
 Maximum number of real-space cells 4x 5x 1
 Maximum number of reciprocal cells 2x 2x 7

    FEWALD:  cpu time    0.0017: real time    0.0018


--------------------------------------- Iteration      1(   1)  ---------------------------------------


    POTLOK:  cpu time    0.0289: real time    0.0981
    SETDIJ:  cpu time    0.0019: real time    0.0019
     EDDAV:  cpu time    0.6240: real time    0.6342
       DOS:  cpu time    0.0007: real time    0.0007
    --------------------------------------------
      LOOP:  cpu time    0.6556: real time    0.7350

 eigenvalue-minimisations  :  2004
 total energy-change (2. order) : 0.4930277E+03  (-0.1913856E+04)
 number of electron      48.0000000 magnetization 
 augmentation part       48.0000000 magnetization 

 DIPCOR: dipole corrections for dipol
 direction  3 min pos     1,
 dipolmoment           0.000000      0.000000      0.000000 electrons x Angstroem
 Tr[quadrupol]      -262.704782

 energy correction for charged system         0.000000 eV
 dipol+quadrupol energy correction           -0.000000 eV
 added-field ion interaction          0.000000 eV  (added to PSCEN)


 Free energy of the ion-electron system (eV)
  ---------------------------------------------------
  alpha Z        PSCENC =        15.84472481
  Ewald energy   TEWEN  =      9344.94627482
  -Hartree energ DENC   =    -11656.76800929
  -exchange      EXHF   =         0.00000000
  -V(xc)+E(xc)   XCENC  =       194.60362565
  PAW double counting   =      2253.29632336    -2260.66706757
  entropy T*S    EENTRO =        -0.02097720
  eigenvalues    EBANDS =      -277.05750526
  atomic energy  EATOM  =      2878.85028532
  Solvation  Ediel_sol  =         0.00000000
  ---------------------------------------------------
  free energy    TOTEN  =       493.02767464 eV

  energy without entropy =      493.04865184  energy(sigma->0) =      493.03816324


--------------------------------------------------------------------------------------------------------




--------------------------------------- Iteration      1(   2)  ---------------------------------------


     EDDAV:  cpu time    0.6303: real time    0.6309
       DOS:  cpu time    0.0004: real time    0.0004
    --------------------------------------------
      LOOP:  cpu time    0.6308: real time    0.6313

 eigenvalue-minimisations  :  2628
 total energy-change (2. order) :-0.4778748E+03  (-0.4616301E+03)
 number of electron      48.0000000 magnetization 
 augmentation part       48.0000000 magnetization 

 DIPCOR: dipole corrections for dipol
 direction  3 min pos     1,
 dipolmoment           0.000000      0.000000      0.000000 electrons x Angstroem
 Tr[quadrupol]      -262.704782

 energy correction for charged system         0.000000 eV
 dipol+quadrupol energy correction           -0.000000 eV
 added-field ion interaction          0.000000 eV  (added to PSCEN)


 Free energy of the ion-electron system (eV)
  ---------------------------------------------------
  alpha Z        PSCENC =        15.84472481
  Ewald energy   TEWEN  =      9344.94627482
  -Hartree energ DENC   =    -11656.76800929
  -exchange      EXHF   =         0.00000000
  -V(xc)+E(xc)   XCENC  =       194.60362565
  PAW double counting   =      2253.29632336    -2260.66706757
  entropy T*S    EENTRO =        -0.00000000
  eigenvalues    EBANDS =      -754.95326785
  atomic energy  EATOM  =      2878.85028532
  Solvation  Ediel_sol  =         0.00000000
  ---------------------------------------------------
  free energy    TOTEN  =        15.15288925 eV

  energy without entropy =       15.15288925  energy(sigma->0) =       15.15288925


--------------------------------------------------------------------------------------------------------




--------------------------------------- Iteration      1(   3)  ---------------------------------------


     EDDAV:  cpu time    0.5252: real time    0.5260
       DOS:  cpu time    0.0004: real time    0.0004
    --------------------------------------------
      LOOP:  cpu time    0.5256: real time    0.5264

 eigenvalue-minimisations  :  2010
 total energy-change (2. order) :-0.9993530E+02  (-0.9938431E+02)
 number of electron      48.0000000 magnetization 
 augmentation part       48.0000000 magnetization 

 DIPCOR: dipole corrections for dipol
 direction  3 min pos     1,
 dipolmoment           0.000000      0.000000      0.000000 electrons x Angstroem
 Tr[quadrupol]      -262.704782

 energy correction for charged system         0.000000 eV
 dipol+quadrupol energy correction           -0.000000 eV
 added-field ion interaction          0.000000 eV  (added to PSCEN)


 Free energy of the ion-electron system (eV)
  ---------------------------------------------------
  alpha Z        PSCENC =        15.84472481
  Ewald energy   TEWEN  =      9344.94627482
  -Hartree energ DENC   =    -11656.76800929
  -exchange      EXHF   =         0.00000000
  -V(xc)+E(xc)   XCENC  =       194.60362565
  PAW double counting   =      2253.29632336    -2260.66706757
  entropy T*S    EENTRO =        -0.00000000
  eigenvalues    EBANDS =      -854.88856887
  atomic energy  EATOM  =      2878.85028532
  Solvation  Ediel_sol  =         0.00000000
  ---------------------------------------------------
  free energy    TOTEN  =       -84.78241177 eV

  energy without entropy =      -84.78241177  energy(sigma->0) =      -84.78241177


--------------------------------------------------------------------------------------------------------




--------------------------------------- Iteration      1(   4)  ---------------------------------------


     EDDAV:  cpu time    0.5382: real time    0.5390
       DOS:  cpu time    0.0005: real time    0.0005
    --------------------------------------------
      LOOP:  cpu time    0.5387: real time    0.5395

 eigenvalue-minimisations  :  2022
 total energy-change (2. order) :-0.3227913E+01  (-0.3202676E+01)
 number of electron      48.0000000 magnetization 
 augmentation part       48.0000000 magnetization 

 DIPCOR: dipole corrections for dipol
 direction  3 min pos     1,
 dipolmoment           0.000000      0.000000      0.000000 electrons x Angstroem
 Tr[quadrupol]      -262.704782

 energy correction for charged system         0.000000 eV
 dipol+quadrupol energy correction           -0.000000 eV
 added-field ion interaction          0.000000 eV  (added to PSCEN)


 Free energy of the ion-electron system (eV)
  ---------------------------------------------------
  alpha Z        PSCENC =        15.84472481
  Ewald energy   TEWEN  =      9344.94627482
  -Hartree energ DENC   =    -11656.76800929
  -exchange      EXHF   =         0.00000000
  -V(xc)+E(xc)   XCENC  =       194.60362565
  PAW double counting   =      2253.29632336    -2260.66706757
  entropy T*S    EENTRO =        -0.00000000
  eigenvalues    EBANDS =      -858.11648158
  atomic energy  EATOM  =      2878.85028532
  Solvation  Ediel_sol  =         0.00000000
  ---------------------------------------------------
  free energy    TOTEN  =       -88.01032448 eV

  energy without entropy =      -88.01032448  energy(sigma->0) =      -88.01032448


--------------------------------------------------------------------------------------------------------




--------------------------------------- Iteration      1(   5)  ---------------------------------------


     EDDAV:  cpu time    0.4920: real time    0.4927
       DOS:  cpu time    0.0004: real time    0.0004
    CHARGE:  cpu time    0.0175: real time    0.0175
    MIXING:  cpu time    0.0008: real time    0.0008
    --------------------------------------------
      LOOP:  cpu time    0.5107: real time    0.5115

 eigenvalue-minimisations  :  1920
 total energy-change (2. order) :-0.6473561E-01  (-0.6465188E-01)
 number of electron      47.9999984 magnetization 
 augmentation part        4.7030646 magnetization 

 DIPCOR: dipole corrections for dipol
 direction  3 min pos     1,
 dipolmoment           0.000000      0.000000      0.000000 electrons x Angstroem
 Tr[quadrupol]      -262.704782

 energy correction for charged system         0.000000 eV
 dipol+quadrupol energy correction           -0.000000 eV
 added-field ion interaction          0.000000 eV  (added to PSCEN)


 Broyden mixing:
  rms(total) = 0.17960E+01    rms(broyden)= 0.17957E+01
  rms(prec ) = 0.18907E+01
  weight for this iteration     100.00

 Free energy of the ion-electron system (eV)
  ---------------------------------------------------
  alpha Z        PSCENC =        15.84472481
  Ewald energy   TEWEN  =      9344.94627482
  -Hartree energ DENC   =    -11656.76800929
  -exchange      EXHF   =         0.00000000
  -V(xc)+E(xc)   XCENC  =       194.60362565
  PAW double counting   =      2253.29632336    -2260.66706757
  entropy T*S    EENTRO =        -0.00000000
  eigenvalues    EBANDS =      -858.18121719
  atomic energy  EATOM  =      2878.85028532
  Solvation  Ediel_sol  =         0.00000000
  ---------------------------------------------------
  free energy    TOTEN  =       -88.07506009 eV

  energy without entropy =      -88.07506009  energy(sigma->0) =      -88.07506009


--------------------------------------------------------------------------------------------------------




--------------------------------------- Iteration      1(   6)  ---------------------------------------


    POTLOK:  cpu time    0.0137: real time    0.0139
    SETDIJ:  cpu time    0.0009: real time    0.0009
     EDDAV:  cpu time    0.4929: real time    0.4934
       DOS:  cpu time    0.0005: real time    0.0005
    CHARGE:  cpu time    0.0174: real time    0.0176
    MIXING:  cpu time    0.0003: real time    0.0003
    --------------------------------------------
      LOOP:  cpu time    0.5259: real time    0.5267

 eigenvalue-minimisations  :  1920
 total energy-change (2. order) : 0.7363026E+01  (-0.2761142E+01)
 number of electron      47.9999986 magnetization 
 augmentation part        4.0664025 magnetization 

 DIPCOR: dipole corrections for dipol
 direction  3 min pos     1,
 dipolmoment           0.000000      0.000000     -0.000031 electrons x Angstroem
 Tr[quadrupol]      -263.068738

 energy correction for charged system         0.000000 eV
 dipol+quadrupol energy correction           -0.000000 eV
 added-field ion interaction         -0.000000 eV  (added to PSCEN)


 Broyden mixing:
  rms(total) = 0.67226E+00    rms(broyden)= 0.67202E+00
  rms(prec ) = 0.69162E+00
  weight for this iteration     100.00

 eigenvalues of (default mixing * dielectric matrix)
  average eigenvalue GAMMA=   1.0302
  1.0302

 Free energy of the ion-electron system (eV)
  ---------------------------------------------------
  alpha Z        PSCENC =        15.84472480
  Ewald energy   TEWEN  =      9344.94627482
  -Hartree energ DENC   =    -11766.30595231
  -exchange      EXHF   =         0.00000000
  -V(xc)+E(xc)   XCENC  =       200.63943551
  PAW double counting   =      3126.32726318    -3135.81597089
  entropy T*S    EENTRO =        -0.00000000
  eigenvalues    EBANDS =      -745.19809484
  atomic energy  EATOM  =      2878.85028532
  Solvation  Ediel_sol  =         0.00000000
  ---------------------------------------------------
  free energy    TOTEN  =       -80.71203441 eV

  energy without entropy =      -80.71203441  energy(sigma->0) =      -80.71203441


--------------------------------------------------------------------------------------------------------




--------------------------------------- Iteration      1(   7)  ---------------------------------------


    POTLOK:  cpu time    0.0135: real time    0.0136
    SETDIJ:  cpu time    0.0009: real time    0.0009
     EDDAV:  cpu time    0.5071: real time    0.5076
       DOS:  cpu time    0.0005: real time    0.0005
    CHARGE:  cpu time    0.0173: real time    0.0173
    MIXING:  cpu time    0.0004: real time    0.0004
    --------------------------------------------
      LOOP:  cpu time    0.5398: real time    0.5403

 eigenvalue-minimisations  :  2016
 total energy-change (2. order) : 0.3186217E+00  (-0.6864963E-01)
 number of electron      47.9999986 magnetization 
 augmentation part        4.0378339 magnetization 

 DIPCOR: dipole corrections for dipol
 direction  3 min pos     1,
 dipolmoment           0.000000      0.000000     -0.000004 electrons x Angstroem
 Tr[quadrupol]      -263.343399

 energy correction for charged system         0.000000 eV
 dipol+quadrupol energy correction           -0.000000 eV
 added-field ion interaction         -0.000000 eV  (added to PSCEN)


 Broyden mixing:
  rms(total) = 0.40364E+00    rms(broyden)= 0.40362E+00
  rms(prec ) = 0.41585E+00
  weight for this iteration     100.00

 eigenvalues of (default mixing * dielectric matrix)
  average eigenvalue GAMMA=   1.7406
  1.0590  2.4221

 Free energy of the ion-electron system (eV)
  ---------------------------------------------------
  alpha Z        PSCENC =        15.84472481
  Ewald energy   TEWEN  =      9344.94627482
  -Hartree energ DENC   =    -11791.32422990
  -exchange      EXHF   =         0.00000000
  -V(xc)+E(xc)   XCENC  =       201.49653332
  PAW double counting   =      3758.70875018    -3768.35408852
  entropy T*S    EENTRO =        -0.00000000
  eigenvalues    EBANDS =      -720.56166276
  atomic energy  EATOM  =      2878.85028532
  Solvation  Ediel_sol  =         0.00000000
  ---------------------------------------------------
  free energy    TOTEN  =       -80.39341273 eV

  energy without entropy =      -80.39341273  energy(sigma->0) =      -80.39341273


--------------------------------------------------------------------------------------------------------




--------------------------------------- Iteration      1(   8)  ---------------------------------------


    POTLOK:  cpu time    0.0136: real time    0.0136
    SETDIJ:  cpu time    0.0010: real time    0.0010
     EDDAV:  cpu time    0.5042: real time    0.5048
       DOS:  cpu time    0.0005: real time    0.0005
    CHARGE:  cpu time    0.0172: real time    0.0172
    MIXING:  cpu time    0.0004: real time    0.0004
    --------------------------------------------
      LOOP:  cpu time    0.5368: real time    0.5374

 eigenvalue-minimisations  :  1998
 total energy-change (2. order) : 0.1959859E+00  (-0.4415209E-01)
 number of electron      47.9999986 magnetization 
 augmentation part        4.0386425 magnetization 

 DIPCOR: dipole corrections for dipol
 direction  3 min pos     1,
 dipolmoment           0.000000      0.000000      0.000001 electrons x Angstroem
 Tr[quadrupol]      -263.822763

 energy correction for charged system         0.000000 eV
 dipol+quadrupol energy correction           -0.000000 eV
 added-field ion interaction          0.000000 eV  (added to PSCEN)


 Broyden mixing:
  rms(total) = 0.46120E-01    rms(broyden)= 0.46106E-01
  rms(prec ) = 0.54405E-01
  weight for this iteration     100.00

 eigenvalues of (default mixing * dielectric matrix)
  average eigenvalue GAMMA=   1.5460
  2.5003  1.0689  1.0689

 Free energy of the ion-electron system (eV)
  ---------------------------------------------------
  alpha Z        PSCENC =        15.84472481
  Ewald energy   TEWEN  =      9344.94627482
  -Hartree energ DENC   =    -11824.74077242
  -exchange      EXHF   =         0.00000000
  -V(xc)+E(xc)   XCENC  =       202.46775322
  PAW double counting   =      4798.23990623    -4808.06931618
  entropy T*S    EENTRO =        -0.00000000
  eigenvalues    EBANDS =      -687.73628266
  atomic energy  EATOM  =      2878.85028532
  Solvation  Ediel_sol  =         0.00000000
  ---------------------------------------------------
  free energy    TOTEN  =       -80.19742686 eV

  energy without entropy =      -80.19742686  energy(sigma->0) =      -80.19742686


--------------------------------------------------------------------------------------------------------




--------------------------------------- Iteration      1(   9)  ---------------------------------------


    POTLOK:  cpu time    0.0134: real time    0.0134
    SETDIJ:  cpu time    0.0009: real time    0.0009
     EDDAV:  cpu time    0.5077: real time    0.5082
       DOS:  cpu time    0.0005: real time    0.0005
    CHARGE:  cpu time    0.0173: real time    0.0173
    MIXING:  cpu time    0.0004: real time    0.0004
    --------------------------------------------
      LOOP:  cpu time    0.5402: real time    0.5407

 eigenvalue-minimisations  :  2022
 total energy-change (2. order) : 0.6840253E-02  (-0.2240101E-02)
 number of electron      47.9999986 magnetization 
 augmentation part        4.0264897 magnetization 

 DIPCOR: dipole corrections for dipol
 direction  3 min pos     1,
 dipolmoment           0.000000      0.000000     -0.000020 electrons x Angstroem
 Tr[quadrupol]      -263.962801

 energy correction for charged system         0.000000 eV
 dipol+quadrupol energy correction           -0.000000 eV
 added-field ion interaction         -0.000000 eV  (added to PSCEN)


 Broyden mixing:
  rms(total) = 0.24060E-01    rms(broyden)= 0.24056E-01
  rms(prec ) = 0.31699E-01
  weight for this iteration     100.00

 eigenvalues of (default mixing * dielectric matrix)
  average eigenvalue GAMMA=   1.6250
  1.0550  1.0550  2.4087  1.9814

 Free energy of the ion-electron system (eV)
  ---------------------------------------------------
  alpha Z        PSCENC =        15.84472481
  Ewald energy   TEWEN  =      9344.94627482
  -Hartree energ DENC   =    -11830.78814440
  -exchange      EXHF   =         0.00000000
  -V(xc)+E(xc)   XCENC  =       202.62586609
  PAW double counting   =      4834.16651510    -4844.00483447
  entropy T*S    EENTRO =        -0.00000000
  eigenvalues    EBANDS =      -681.83127387
  atomic energy  EATOM  =      2878.85028532
  Solvation  Ediel_sol  =         0.00000000
  ---------------------------------------------------
  free energy    TOTEN  =       -80.19058661 eV

  energy without entropy =      -80.19058661  energy(sigma->0) =      -80.19058661


--------------------------------------------------------------------------------------------------------




--------------------------------------- Iteration      1(  10)  ---------------------------------------


    POTLOK:  cpu time    0.0137: real time    0.0137
    SETDIJ:  cpu time    0.0009: real time    0.0009
     EDDAV:  cpu time    0.5017: real time    0.5025
       DOS:  cpu time    0.0005: real time    0.0005
    CHARGE:  cpu time    0.0175: real time    0.0175
    MIXING:  cpu time    0.0004: real time    0.0004
    --------------------------------------------
      LOOP:  cpu time    0.5347: real time    0.5355

 eigenvalue-minimisations  :  1986
 total energy-change (2. order) : 0.3203983E-02  (-0.3364270E-03)
 number of electron      47.9999986 magnetization 
 augmentation part        4.0251310 magnetization 

 DIPCOR: dipole corrections for dipol
 direction  3 min pos     1,
 dipolmoment           0.000000      0.000000     -0.000018 electrons x Angstroem
 Tr[quadrupol]      -264.152518

 energy correction for charged system         0.000000 eV
 dipol+quadrupol energy correction           -0.000000 eV
 added-field ion interaction         -0.000000 eV  (added to PSCEN)


 Broyden mixing:
  rms(total) = 0.10293E-01    rms(broyden)= 0.10292E-01
  rms(prec ) = 0.17432E-01
  weight for this iteration     100.00

 eigenvalues of (default mixing * dielectric matrix)
  average eigenvalue GAMMA=   1.6620
  2.5632  2.5632  1.0367  1.0735  1.0735

 Free energy of the ion-electron system (eV)
  ---------------------------------------------------
  alpha Z        PSCENC =        15.84472481
  Ewald energy   TEWEN  =      9344.94627482
  -Hartree energ DENC   =    -11836.31632554
  -exchange      EXHF   =         0.00000000
  -V(xc)+E(xc)   XCENC  =       202.67091090
  PAW double counting   =      4821.72863551    -4831.52212086
  entropy T*S    EENTRO =        -0.00000000
  eigenvalues    EBANDS =      -676.38976758
  atomic energy  EATOM  =      2878.85028532
  Solvation  Ediel_sol  =         0.00000000
  ---------------------------------------------------
  free energy    TOTEN  =       -80.18738262 eV

  energy without entropy =      -80.18738262  energy(sigma->0) =      -80.18738262


--------------------------------------------------------------------------------------------------------




--------------------------------------- Iteration      1(  11)  ---------------------------------------


    POTLOK:  cpu time    0.0138: real time    0.0138
    SETDIJ:  cpu time    0.0010: real time    0.0010
     EDDAV:  cpu time    0.5115: real time    0.5120
       DOS:  cpu time    0.0005: real time    0.0005
    CHARGE:  cpu time    0.0173: real time    0.0173
    MIXING:  cpu time    0.0004: real time    0.0004
    --------------------------------------------
      LOOP:  cpu time    0.5445: real time    0.5450

 eigenvalue-minimisations  :  2052
 total energy-change (2. order) : 0.6792388E-03  (-0.1235411E-03)
 number of electron      47.9999986 magnetization 
 augmentation part        4.0256026 magnetization 

 DIPCOR: dipole corrections for dipol
 direction  3 min pos     1,
 dipolmoment           0.000000      0.000000     -0.000013 electrons x Angstroem
 Tr[quadrupol]      -264.335700

 energy correction for charged system         0.000000 eV
 dipol+quadrupol energy correction           -0.000000 eV
 added-field ion interaction         -0.000000 eV  (added to PSCEN)


 Broyden mixing:
  rms(total) = 0.60441E-02    rms(broyden)= 0.60434E-02
  rms(prec ) = 0.11009E-01
  weight for this iteration     100.00

 eigenvalues of (default mixing * dielectric matrix)
  average eigenvalue GAMMA=   1.8740
  3.5303  2.5120  2.0181  0.9910  1.0965  1.0965

 Free energy of the ion-electron system (eV)
  ---------------------------------------------------
  alpha Z        PSCENC =        15.84472481
  Ewald energy   TEWEN  =      9344.94627482
  -Hartree energ DENC   =    -11841.68827903
  -exchange      EXHF   =         0.00000000
  -V(xc)+E(xc)   XCENC  =       202.70701536
  PAW double counting   =      4818.11714209    -4827.89317251
  entropy T*S    EENTRO =        -0.00000000
  eigenvalues    EBANDS =      -671.07069424
  atomic energy  EATOM  =      2878.85028532
  Solvation  Ediel_sol  =         0.00000000
  ---------------------------------------------------
  free energy    TOTEN  =       -80.18670338 eV

  energy without entropy =      -80.18670338  energy(sigma->0) =      -80.18670338


--------------------------------------------------------------------------------------------------------




--------------------------------------- Iteration      1(  12)  ---------------------------------------


    POTLOK:  cpu time    0.0138: real time    0.0138
    SETDIJ:  cpu time    0.0010: real time    0.0010
     EDDAV:  cpu time    0.4869: real time    0.4876
       DOS:  cpu time    0.0005: real time    0.0005
    CHARGE:  cpu time    0.0170: real time    0.0171
    MIXING:  cpu time    0.0005: real time    0.0005
    --------------------------------------------
      LOOP:  cpu time    0.5196: real time    0.5203

 eigenvalue-minimisations  :  1896
 total energy-change (2. order) :-0.1021689E-02  (-0.1757888E-03)
 number of electron      47.9999986 magnetization 
 augmentation part        4.0249753 magnetization 

 DIPCOR: dipole corrections for dipol
 direction  3 min pos     1,
 dipolmoment           0.000000      0.000000     -0.000015 electrons x Angstroem
 Tr[quadrupol]      -264.548169

 energy correction for charged system         0.000000 eV
 dipol+quadrupol energy correction           -0.000000 eV
 added-field ion interaction         -0.000000 eV  (added to PSCEN)


 Broyden mixing:
  rms(total) = 0.30913E-02    rms(broyden)= 0.30903E-02
  rms(prec ) = 0.54352E-02
  weight for this iteration     100.00

 eigenvalues of (default mixing * dielectric matrix)
  average eigenvalue GAMMA=   1.9327
  4.2208  2.5482  2.0687  1.5222  0.9883  1.0905  1.0905

 Free energy of the ion-electron system (eV)
  ---------------------------------------------------
  alpha Z        PSCENC =        15.84472481
  Ewald energy   TEWEN  =      9344.94627482
  -Hartree energ DENC   =    -11848.00301087
  -exchange      EXHF   =         0.00000000
  -V(xc)+E(xc)   XCENC  =       202.74795675
  PAW double counting   =      4811.63044814    -4821.41536523
  entropy T*S    EENTRO =        -0.00000000
  eigenvalues    EBANDS =      -664.78903880
  atomic energy  EATOM  =      2878.85028532
  Solvation  Ediel_sol  =         0.00000000
  ---------------------------------------------------
  free energy    TOTEN  =       -80.18772507 eV

  energy without entropy =      -80.18772507  energy(sigma->0) =      -80.18772507


--------------------------------------------------------------------------------------------------------




--------------------------------------- Iteration      1(  13)  ---------------------------------------


    POTLOK:  cpu time    0.0134: real time    0.0134
    SETDIJ:  cpu time    0.0009: real time    0.0009
     EDDAV:  cpu time    0.5409: real time    0.5415
       DOS:  cpu time    0.0005: real time    0.0005
    CHARGE:  cpu time    0.0187: real time    0.0187
    MIXING:  cpu time    0.0006: real time    0.0006
    --------------------------------------------
      LOOP:  cpu time    0.5749: real time    0.5755

 eigenvalue-minimisations  :  2022
 total energy-change (2. order) :-0.1130442E-02  (-0.3200936E-04)
 number of electron      47.9999986 magnetization 
 augmentation part        4.0247291 magnetization 

 DIPCOR: dipole corrections for dipol
 direction  3 min pos     1,
 dipolmoment           0.000000      0.000000     -0.000016 electrons x Angstroem
 Tr[quadrupol]      -264.636120

 energy correction for charged system         0.000000 eV
 dipol+quadrupol energy correction           -0.000000 eV
 added-field ion interaction         -0.000000 eV  (added to PSCEN)


 Broyden mixing:
  rms(total) = 0.21780E-02    rms(broyden)= 0.21776E-02
  rms(prec ) = 0.33514E-02
  weight for this iteration     100.00

 eigenvalues of (default mixing * dielectric matrix)
  average eigenvalue GAMMA=   2.0124
  5.2596  2.7233  2.3697  1.8860  1.0921  1.0921  0.9733  0.7031

 Free energy of the ion-electron system (eV)
  ---------------------------------------------------
  alpha Z        PSCENC =        15.84472481
  Ewald energy   TEWEN  =      9344.94627482
  -Hartree energ DENC   =    -11850.50015810
  -exchange      EXHF   =         0.00000000
  -V(xc)+E(xc)   XCENC  =       202.75324295
  PAW double counting   =      4812.14795050    -4821.93111627
  entropy T*S    EENTRO =        -0.00000000
  eigenvalues    EBANDS =      -662.30005955
  atomic energy  EATOM  =      2878.85028532
  Solvation  Ediel_sol  =         0.00000000
  ---------------------------------------------------
  free energy    TOTEN  =       -80.18885551 eV

  energy without entropy =      -80.18885551  energy(sigma->0) =      -80.18885551


--------------------------------------------------------------------------------------------------------




--------------------------------------- Iteration      1(  14)  ---------------------------------------


    POTLOK:  cpu time    0.0140: real time    0.0140
    SETDIJ:  cpu time    0.0009: real time    0.0009
     EDDAV:  cpu time    0.4947: real time    0.4956
       DOS:  cpu time    0.0006: real time    0.0006
    CHARGE:  cpu time    0.0171: real time    0.0171
    MIXING:  cpu time    0.0005: real time    0.0005
    --------------------------------------------
      LOOP:  cpu time    0.5277: real time    0.5287

 eigenvalue-minimisations  :  1884
 total energy-change (2. order) :-0.8721522E-03  (-0.5783551E-05)
 number of electron      47.9999986 magnetization 
 augmentation part        4.0246055 magnetization 

 DIPCOR: dipole corrections for dipol
 direction  3 min pos     1,
 dipolmoment           0.000000      0.000000     -0.000014 electrons x Angstroem
 Tr[quadrupol]      -264.670311

 energy correction for charged system         0.000000 eV
 dipol+quadrupol energy correction           -0.000000 eV
 added-field ion interaction         -0.000000 eV  (added to PSCEN)


 Broyden mixing:
  rms(total) = 0.17553E-02    rms(broyden)= 0.17552E-02
  rms(prec ) = 0.24659E-02
  weight for this iteration     100.00

 eigenvalues of (default mixing * dielectric matrix)
  average eigenvalue GAMMA=   2.1302
  6.2189  3.0501  2.4331  1.9756  0.9676  1.0843  1.0843  1.1789  1.1789

 Free energy of the ion-electron system (eV)
  ---------------------------------------------------
  alpha Z        PSCENC =        15.84472481
  Ewald energy   TEWEN  =      9344.94627482
  -Hartree energ DENC   =    -11851.53340860
  -exchange      EXHF   =         0.00000000
  -V(xc)+E(xc)   XCENC  =       202.75473929
  PAW double counting   =      4813.40623186    -4823.18906140
  entropy T*S    EENTRO =        -0.00000000
  eigenvalues    EBANDS =      -661.26951377
  atomic energy  EATOM  =      2878.85028532
  Solvation  Ediel_sol  =         0.00000000
  ---------------------------------------------------
  free energy    TOTEN  =       -80.18972767 eV

  energy without entropy =      -80.18972767  energy(sigma->0) =      -80.18972767


--------------------------------------------------------------------------------------------------------




--------------------------------------- Iteration      1(  15)  ---------------------------------------


    POTLOK:  cpu time    0.0135: real time    0.0135
    SETDIJ:  cpu time    0.0009: real time    0.0009
     EDDAV:  cpu time    0.4782: real time    0.4786
       DOS:  cpu time    0.0005: real time    0.0005
    CHARGE:  cpu time    0.0173: real time    0.0173
    MIXING:  cpu time    0.0006: real time    0.0006
    --------------------------------------------
      LOOP:  cpu time    0.5110: real time    0.5115

 eigenvalue-minimisations  :  1836
 total energy-change (2. order) :-0.1193846E-02  (-0.1510763E-04)
 number of electron      47.9999986 magnetization 
 augmentation part        4.0245112 magnetization 

 DIPCOR: dipole corrections for dipol
 direction  3 min pos     1,
 dipolmoment           0.000000      0.000000     -0.000012 electrons x Angstroem
 Tr[quadrupol]      -264.688984

 energy correction for charged system         0.000000 eV
 dipol+quadrupol energy correction           -0.000000 eV
 added-field ion interaction         -0.000000 eV  (added to PSCEN)


 Broyden mixing:
  rms(total) = 0.12688E-02    rms(broyden)= 0.12682E-02
  rms(prec ) = 0.15953E-02
  weight for this iteration     100.00

 eigenvalues of (default mixing * dielectric matrix)
  average eigenvalue GAMMA=   2.1232
  6.6807  3.3417  2.5240  2.1768  1.3945  0.9791  1.0835  1.0835  0.9840  0.9840

 Free energy of the ion-electron system (eV)
  ---------------------------------------------------
  alpha Z        PSCENC =        15.84472481
  Ewald energy   TEWEN  =      9344.94627482
  -Hartree energ DENC   =    -11852.26258444
  -exchange      EXHF   =         0.00000000
  -V(xc)+E(xc)   XCENC  =       202.75407764
  PAW double counting   =      4814.34342508    -4824.12477886
  entropy T*S    EENTRO =        -0.00000000
  eigenvalues    EBANDS =      -660.54234588
  atomic energy  EATOM  =      2878.85028532
  Solvation  Ediel_sol  =         0.00000000
  ---------------------------------------------------
  free energy    TOTEN  =       -80.19092151 eV

  energy without entropy =      -80.19092151  energy(sigma->0) =      -80.19092151


--------------------------------------------------------------------------------------------------------




--------------------------------------- Iteration      1(  16)  ---------------------------------------


    POTLOK:  cpu time    0.0135: real time    0.0135
    SETDIJ:  cpu time    0.0009: real time    0.0009
     EDDAV:  cpu time    0.4965: real time    0.4972
       DOS:  cpu time    0.0005: real time    0.0005
    CHARGE:  cpu time    0.0174: real time    0.0174
    MIXING:  cpu time    0.0005: real time    0.0005
    --------------------------------------------
      LOOP:  cpu time    0.5294: real time    0.5300

 eigenvalue-minimisations  :  1956
 total energy-change (2. order) :-0.5301122E-03  (-0.3636136E-05)
 number of electron      47.9999986 magnetization 
 augmentation part        4.0246060 magnetization 

 DIPCOR: dipole corrections for dipol
 direction  3 min pos     1,
 dipolmoment           0.000000      0.000000     -0.000012 electrons x Angstroem
 Tr[quadrupol]      -264.691180

 energy correction for charged system         0.000000 eV
 dipol+quadrupol energy correction           -0.000000 eV
 added-field ion interaction         -0.000000 eV  (added to PSCEN)


 Broyden mixing:
  rms(total) = 0.64946E-03    rms(broyden)= 0.64938E-03
  rms(prec ) = 0.86358E-03
  weight for this iteration     100.00

 eigenvalues of (default mixing * dielectric matrix)
  average eigenvalue GAMMA=   2.3130
  7.8121  4.1538  2.6599  2.4782  2.0567  1.0969  1.0969  0.9918  0.9347  1.0813
  1.0813

 Free energy of the ion-electron system (eV)
  ---------------------------------------------------
  alpha Z        PSCENC =        15.84472481
  Ewald energy   TEWEN  =      9344.94627482
  -Hartree energ DENC   =    -11852.46414555
  -exchange      EXHF   =         0.00000000
  -V(xc)+E(xc)   XCENC  =       202.75215450
  PAW double counting   =      4814.84993094    -4824.63008417
  entropy T*S    EENTRO =        -0.00000000
  eigenvalues    EBANDS =      -660.34059229
  atomic energy  EATOM  =      2878.85028532
  Solvation  Ediel_sol  =         0.00000000
  ---------------------------------------------------
  free energy    TOTEN  =       -80.19145162 eV

  energy without entropy =      -80.19145162  energy(sigma->0) =      -80.19145162


--------------------------------------------------------------------------------------------------------




--------------------------------------- Iteration      1(  17)  ---------------------------------------


    POTLOK:  cpu time    0.0132: real time    0.0132
    SETDIJ:  cpu time    0.0009: real time    0.0009
     EDDAV:  cpu time    0.4799: real time    0.4804
       DOS:  cpu time    0.0005: real time    0.0005
    CHARGE:  cpu time    0.0174: real time    0.0174
    MIXING:  cpu time    0.0006: real time    0.0006
    --------------------------------------------
      LOOP:  cpu time    0.5125: real time    0.5130

 eigenvalue-minimisations  :  1854
 total energy-change (2. order) :-0.4354237E-03  (-0.3810785E-05)
 number of electron      47.9999986 magnetization 
 augmentation part        4.0245210 magnetization 

 DIPCOR: dipole corrections for dipol
 direction  3 min pos     1,
 dipolmoment           0.000000      0.000000     -0.000012 electrons x Angstroem
 Tr[quadrupol]      -264.689307

 energy correction for charged system         0.000000 eV
 dipol+quadrupol energy correction           -0.000000 eV
 added-field ion interaction         -0.000000 eV  (added to PSCEN)


 Broyden mixing:
  rms(total) = 0.35823E-03    rms(broyden)= 0.35810E-03
  rms(prec ) = 0.44023E-03
  weight for this iteration     100.00

 eigenvalues of (default mixing * dielectric matrix)
  average eigenvalue GAMMA=   2.3441
  8.4875  4.6182  2.8945  2.4707  2.0338  1.3592  1.0880  1.0880  0.9898  0.9608
  1.0696  1.0696

 Free energy of the ion-electron system (eV)
  ---------------------------------------------------
  alpha Z        PSCENC =        15.84472481
  Ewald energy   TEWEN  =      9344.94627482
  -Hartree energ DENC   =    -11852.65757961
  -exchange      EXHF   =         0.00000000
  -V(xc)+E(xc)   XCENC  =       202.75221861
  PAW double counting   =      4813.81934572    -4823.60038996
  entropy T*S    EENTRO =        -0.00000000
  eigenvalues    EBANDS =      -660.14676675
  atomic energy  EATOM  =      2878.85028532
  Solvation  Ediel_sol  =         0.00000000
  ---------------------------------------------------
  free energy    TOTEN  =       -80.19188705 eV

  energy without entropy =      -80.19188705  energy(sigma->0) =      -80.19188705


--------------------------------------------------------------------------------------------------------




--------------------------------------- Iteration      1(  18)  ---------------------------------------


    POTLOK:  cpu time    0.0136: real time    0.0136
    SETDIJ:  cpu time    0.0009: real time    0.0009
     EDDAV:  cpu time    0.5341: real time    0.5348
       DOS:  cpu time    0.0005: real time    0.0005
    CHARGE:  cpu time    0.0174: real time    0.0174
    MIXING:  cpu time    0.0006: real time    0.0006
    --------------------------------------------
      LOOP:  cpu time    0.5672: real time    0.5678

 eigenvalue-minimisations  :  2184
 total energy-change (2. order) :-0.1038579E-03  (-0.4630766E-06)
 number of electron      47.9999986 magnetization 
 augmentation part        4.0245741 magnetization 

 DIPCOR: dipole corrections for dipol
 direction  3 min pos     1,
 dipolmoment           0.000000      0.000000     -0.000012 electrons x Angstroem
 Tr[quadrupol]      -264.686942

 energy correction for charged system         0.000000 eV
 dipol+quadrupol energy correction           -0.000000 eV
 added-field ion interaction         -0.000000 eV  (added to PSCEN)


 Broyden mixing:
  rms(total) = 0.14541E-03    rms(broyden)= 0.14536E-03
  rms(prec ) = 0.20120E-03
  weight for this iteration     100.00

 eigenvalues of (default mixing * dielectric matrix)
  average eigenvalue GAMMA=   2.4196
  8.8211  5.2131  3.1049  2.4520  2.4520  2.0545  1.0813  1.0813  1.0828  1.0828
  1.1049  0.9620  0.9620

 Free energy of the ion-electron system (eV)
  ---------------------------------------------------
  alpha Z        PSCENC =        15.84472481
  Ewald energy   TEWEN  =      9344.94627482
  -Hartree energ DENC   =    -11852.68802077
  -exchange      EXHF   =         0.00000000
  -V(xc)+E(xc)   XCENC  =       202.75173432
  PAW double counting   =      4813.76229748    -4823.54333412
  entropy T*S    EENTRO =        -0.00000000
  eigenvalues    EBANDS =      -660.11595276
  atomic energy  EATOM  =      2878.85028532
  Solvation  Ediel_sol  =         0.00000000
  ---------------------------------------------------
  free energy    TOTEN  =       -80.19199091 eV

  energy without entropy =      -80.19199091  energy(sigma->0) =      -80.19199091


--------------------------------------------------------------------------------------------------------




--------------------------------------- Iteration      1(  19)  ---------------------------------------


    POTLOK:  cpu time    0.0133: real time    0.0134
    SETDIJ:  cpu time    0.0009: real time    0.0009
     EDDAV:  cpu time    0.4777: real time    0.4782
       DOS:  cpu time    0.0005: real time    0.0005
    CHARGE:  cpu time    0.0174: real time    0.0174
    MIXING:  cpu time    0.0006: real time    0.0007
    --------------------------------------------
      LOOP:  cpu time    0.5105: real time    0.5110

 eigenvalue-minimisations  :  1818
 total energy-change (2. order) :-0.7297320E-04  (-0.2453632E-06)
 number of electron      47.9999986 magnetization 
 augmentation part        4.0245439 magnetization 

 DIPCOR: dipole corrections for dipol
 direction  3 min pos     1,
 dipolmoment           0.000000      0.000000     -0.000012 electrons x Angstroem
 Tr[quadrupol]      -264.684140

 energy correction for charged system         0.000000 eV
 dipol+quadrupol energy correction           -0.000000 eV
 added-field ion interaction         -0.000000 eV  (added to PSCEN)


 Broyden mixing:
  rms(total) = 0.10492E-03    rms(broyden)= 0.10490E-03
  rms(prec ) = 0.11983E-03
  weight for this iteration     100.00

 eigenvalues of (default mixing * dielectric matrix)
  average eigenvalue GAMMA=   2.4242
  9.1025  5.5875  3.4135  2.6824  2.3525  2.0365  1.0891  1.0891  1.4015  1.0859
  1.0859  0.9555  0.9555  1.1013

 Free energy of the ion-electron system (eV)
  ---------------------------------------------------
  alpha Z        PSCENC =        15.84472481
  Ewald energy   TEWEN  =      9344.94627482
  -Hartree energ DENC   =    -11852.71049009
  -exchange      EXHF   =         0.00000000
  -V(xc)+E(xc)   XCENC  =       202.75173781
  PAW double counting   =      4813.79796146    -4823.57926380
  entropy T*S    EENTRO =        -0.00000000
  eigenvalues    EBANDS =      -660.09329421
  atomic energy  EATOM  =      2878.85028532
  Solvation  Ediel_sol  =         0.00000000
  ---------------------------------------------------
  free energy    TOTEN  =       -80.19206388 eV

  energy without entropy =      -80.19206388  energy(sigma->0) =      -80.19206388


--------------------------------------------------------------------------------------------------------




--------------------------------------- Iteration      1(  20)  ---------------------------------------


    POTLOK:  cpu time    0.0137: real time    0.0137
    SETDIJ:  cpu time    0.0010: real time    0.0010
     EDDAV:  cpu time    0.5417: real time    0.5424
       DOS:  cpu time    0.0005: real time    0.0005
    CHARGE:  cpu time    0.0174: real time    0.0175
    MIXING:  cpu time    0.0007: real time    0.0007
    --------------------------------------------
      LOOP:  cpu time    0.5750: real time    0.5757

 eigenvalue-minimisations  :  2214
 total energy-change (2. order) :-0.1696034E-04  (-0.3290760E-07)
 number of electron      47.9999986 magnetization 
 augmentation part        4.0245430 magnetization 

 DIPCOR: dipole corrections for dipol
 direction  3 min pos     1,
 dipolmoment           0.000000      0.000000     -0.000012 electrons x Angstroem
 Tr[quadrupol]      -264.683296

 energy correction for charged system         0.000000 eV
 dipol+quadrupol energy correction           -0.000000 eV
 added-field ion interaction         -0.000000 eV  (added to PSCEN)


 Broyden mixing:
  rms(total) = 0.36589E-04    rms(broyden)= 0.36578E-04
  rms(prec ) = 0.44792E-04
  weight for this iteration     100.00

 eigenvalues of (default mixing * dielectric matrix)
  average eigenvalue GAMMA=   2.4641
  9.3357  5.9640  3.8111  2.8995  2.4732  2.0142  2.0142  1.0912  1.0912  1.0794
  1.0794  1.1334  1.0405  0.9576  0.9764

 Free energy of the ion-electron system (eV)
  ---------------------------------------------------
  alpha Z        PSCENC =        15.84472481
  Ewald energy   TEWEN  =      9344.94627482
  -Hartree energ DENC   =    -11852.71720520
  -exchange      EXHF   =         0.00000000
  -V(xc)+E(xc)   XCENC  =       202.75172675
  PAW double counting   =      4813.77656021    -4823.55777091
  entropy T*S    EENTRO =        -0.00000000
  eigenvalues    EBANDS =      -660.08667665
  atomic energy  EATOM  =      2878.85028532
  Solvation  Ediel_sol  =         0.00000000
  ---------------------------------------------------
  free energy    TOTEN  =       -80.19208084 eV

  energy without entropy =      -80.19208084  energy(sigma->0) =      -80.19208084


--------------------------------------------------------------------------------------------------------




--------------------------------------- Iteration      1(  21)  ---------------------------------------


    POTLOK:  cpu time    0.0133: real time    0.0133
    SETDIJ:  cpu time    0.0009: real time    0.0009
     EDDAV:  cpu time    0.4736: real time    0.4742
       DOS:  cpu time    0.0005: real time    0.0005
    CHARGE:  cpu time    0.0172: real time    0.0172
    MIXING:  cpu time    0.0007: real time    0.0007
    --------------------------------------------
      LOOP:  cpu time    0.5062: real time    0.5069

 eigenvalue-minimisations  :  1812
 total energy-change (2. order) :-0.8221054E-05  (-0.1421018E-07)
 number of electron      47.9999986 magnetization 
 augmentation part        4.0245457 magnetization 

 DIPCOR: dipole corrections for dipol
 direction  3 min pos     1,
 dipolmoment           0.000000      0.000000     -0.000012 electrons x Angstroem
 Tr[quadrupol]      -264.682668

 energy correction for charged system         0.000000 eV
 dipol+quadrupol energy correction           -0.000000 eV
 added-field ion interaction         -0.000000 eV  (added to PSCEN)


 Broyden mixing:
  rms(total) = 0.26102E-04    rms(broyden)= 0.26096E-04
  rms(prec ) = 0.28452E-04
  weight for this iteration     100.00

 eigenvalues of (default mixing * dielectric matrix)
  average eigenvalue GAMMA=   2.4683
  9.4001  6.1294  4.1654  2.9067  2.5569  2.3275  2.0167  1.0964  1.0964  1.4834
  1.1958  1.0812  1.0812  0.9535  0.9665  1.0364

 Free energy of the ion-electron system (eV)
  ---------------------------------------------------
  alpha Z        PSCENC =        15.84472481
  Ewald energy   TEWEN  =      9344.94627482
  -Hartree energ DENC   =    -11852.71727420
  -exchange      EXHF   =         0.00000000
  -V(xc)+E(xc)   XCENC  =       202.75169417
  PAW double counting   =      4813.83388634    -4823.61502063
  entropy T*S    EENTRO =        -0.00000000
  eigenvalues    EBANDS =      -660.08665969
  atomic energy  EATOM  =      2878.85028532
  Solvation  Ediel_sol  =         0.00000000
  ---------------------------------------------------
  free energy    TOTEN  =       -80.19208906 eV

  energy without entropy =      -80.19208906  energy(sigma->0) =      -80.19208906


--------------------------------------------------------------------------------------------------------




--------------------------------------- Iteration      1(  22)  ---------------------------------------


    POTLOK:  cpu time    0.0136: real time    0.0136
    SETDIJ:  cpu time    0.0009: real time    0.0009
     EDDAV:  cpu time    0.4573: real time    0.4577
       DOS:  cpu time    0.0005: real time    0.0005
    CHARGE:  cpu time    0.0193: real time    0.0194
    MIXING:  cpu time    0.0008: real time    0.0008
    --------------------------------------------
      LOOP:  cpu time    0.4924: real time    0.4929

 eigenvalue-minimisations  :  1536
 total energy-change (2. order) :-0.2018461E-05  (-0.2909884E-08)
 number of electron      47.9999986 magnetization 
 augmentation part        4.0245476 magnetization 

 DIPCOR: dipole corrections for dipol
 direction  3 min pos     1,
 dipolmoment           0.000000      0.000000     -0.000012 electrons x Angstroem
 Tr[quadrupol]      -264.682568

 energy correction for charged system         0.000000 eV
 dipol+quadrupol energy correction           -0.000000 eV
 added-field ion interaction         -0.000000 eV  (added to PSCEN)


 Broyden mixing:
  rms(total) = 0.10349E-04    rms(broyden)= 0.10348E-04
  rms(prec ) = 0.11298E-04
  weight for this iteration     100.00

 eigenvalues of (default mixing * dielectric matrix)
  average eigenvalue GAMMA=   2.4640
  9.4277  6.2442  4.3714  3.1136  2.7189  2.4348  2.0861  1.9699  1.0943  1.0943
  1.1719  1.0834  1.0834  0.9563  0.9563  1.0409  1.0409

 Free energy of the ion-electron system (eV)
  ---------------------------------------------------
  alpha Z        PSCENC =        15.84472481
  Ewald energy   TEWEN  =      9344.94627482
  -Hartree energ DENC   =    -11852.71925338
  -exchange      EXHF   =         0.00000000
  -V(xc)+E(xc)   XCENC  =       202.75169691
  PAW double counting   =      4813.82882026    -4823.60995405
[...]
      3.337726  4.049548 11.882512    -0.351006   -0.000035   -0.027483  
 
  12 f  =   21.070581 THz   132.390364 2PiTHz  702.838904 cm-1    87.140949 meV
             X         Y         Z           dx          dy          dz
      1.129743  1.343309 12.532560     0.321919   -0.113237   -0.160674  
      5.545349  1.343320 11.231330     0.321924    0.112912   -0.160196  
      4.445445  3.560536 11.231617    -0.321933    0.113218   -0.160698  
      2.229646  3.560545 12.532849    -0.321834   -0.112872   -0.160099  
      4.548233  2.222720 10.902218    -0.149974   -0.091746    0.072077  
      2.126657  2.222752 12.862106    -0.150944    0.092047    0.071756  
      1.232540  0.005505 12.861951     0.149942    0.091694    0.072038  
      5.442374  0.005523 10.902060     0.150879   -0.092002    0.071822  
      0.022017  1.832333 11.881665     0.146082    0.000060    0.349160  
      3.337726  4.049548 11.882512    -0.146071   -0.000072    0.349118  
 
  13 f  =   20.664735 THz   129.840360 2PiTHz  689.301344 cm-1    85.462505 meV
             X         Y         Z           dx          dy          dz
      1.129743  1.343309 12.532560     0.227580   -0.163159   -0.184431  
      5.545349  1.343320 11.231330     0.236512    0.163458   -0.195414  
      4.445445  3.560536 11.231617     0.227648   -0.163188    0.184487  
      2.229646  3.560545 12.532849     0.236578    0.163467    0.195415  
      4.548233  2.222720 10.902218    -0.227385   -0.232407   -0.065217  
      2.126657  2.222752 12.862106    -0.232377    0.232459   -0.073191  
      1.232540  0.005505 12.861951    -0.227391   -0.232422    0.065210  
      5.442374  0.005523 10.902060    -0.232419    0.232479    0.073177  
      0.022017  1.832333 11.881665     0.077840   -0.000285    0.192936  
      3.337726  4.049548 11.882512     0.077877   -0.000305   -0.193005  
 
  14 f  =   20.567522 THz   129.229553 2PiTHz  686.058668 cm-1    85.060465 meV
             X         Y         Z           dx          dy          dz
      1.129743  1.343309 12.532560    -0.249914    0.048238    0.349725  
      5.545349  1.343320 11.231330     0.241939    0.042820   -0.343382  
      4.445445  3.560536 11.231617    -0.249849    0.048211   -0.349667  
      2.229646  3.560545 12.532849     0.241992    0.042838    0.343404  
      4.548233  2.222720 10.902218     0.073036    0.009082    0.243699  
      2.126657  2.222752 12.862106    -0.065369    0.001509   -0.241345  
      1.232540  0.005505 12.861951     0.073026    0.009070   -0.243722  
      5.442374  0.005523 10.902060    -0.065395    0.001521    0.241322  
      0.022017  1.832333 11.881665    -0.001297   -0.085467   -0.003223  
      3.337726  4.049548 11.882512    -0.001290   -0.085465    0.003146  
 
  15 f  =   19.481265 THz   122.404400 2PiTHz  649.825043 cm-1    80.568066 meV
             X         Y         Z           dx          dy          dz
      1.129743  1.343309 12.532560    -0.131217    0.089110    0.437163  
      5.545349  1.343320 11.231330     0.132129    0.088987   -0.437317  
      4.445445  3.560536 11.231617     0.131257   -0.089037    0.437252  
      2.229646  3.560545 12.532849    -0.132192   -0.088973   -0.437229  
      4.548233  2.222720 10.902218    -0.172969   -0.035157   -0.039271  
      2.126657  2.222752 12.862106     0.173523   -0.034964    0.038945  
      1.232540  0.005505 12.861951     0.172939    0.035241   -0.039251  
      5.442374  0.005523 10.902060    -0.173388    0.034932    0.038966  
      0.022017  1.832333 11.881665     0.000472   -0.039828    0.000480  
      3.337726  4.049548 11.882512    -0.000561    0.039704    0.000450  
 
  16 f  =   19.146313 THz   120.299833 2PiTHz  638.652240 cm-1    79.182815 meV
             X         Y         Z           dx          dy          dz
      1.129743  1.343309 12.532560     0.138444    0.162263    0.040497  
      5.545349  1.343320 11.231330    -0.136447    0.162958   -0.044997  
      4.445445  3.560536 11.231617     0.138403    0.162296   -0.040626  
      2.229646  3.560545 12.532849    -0.136402    0.162975    0.045119  
      4.548233  2.222720 10.902218    -0.280427    0.102852    0.042050  
      2.126657  2.222752 12.862106     0.280152    0.102773   -0.042139  
      1.232540  0.005505 12.861951    -0.280448    0.102851   -0.042033  
      5.442374  0.005523 10.902060     0.280202    0.102777    0.042139  
      0.022017  1.832333 11.881665    -0.000893   -0.473104    0.001164  
      3.337726  4.049548 11.882512    -0.000896   -0.473106   -0.001169  
 
  17 f  =   18.161196 THz   114.110158 2PiTHz  605.792261 cm-1    75.108695 meV
             X         Y         Z           dx          dy          dz
      1.129743  1.343309 12.532560    -0.027842   -0.040677    0.393773  
      5.545349  1.343320 11.231330    -0.028904    0.042053    0.393683  
      4.445445  3.560536 11.231617    -0.027818   -0.040691   -0.393658  
      2.229646  3.560545 12.532849    -0.028922    0.042029   -0.393800  
      4.548233  2.222720 10.902218    -0.124662   -0.171518   -0.033720  
      2.126657  2.222752 12.862106    -0.122729    0.172716   -0.034164  
      1.232540  0.005505 12.861951    -0.124608   -0.171514    0.033704  
      5.442374  0.005523 10.902060    -0.122769    0.172724    0.034203  
      0.022017  1.832333 11.881665     0.294130   -0.002328   -0.079050  
      3.337726  4.049548 11.882512     0.294132   -0.002284    0.079038  
 
  18 f  =   14.742660 THz    92.630864 2PiTHz  491.762187 cm-1    60.970762 meV
             X         Y         Z           dx          dy          dz
      1.129743  1.343309 12.532560    -0.047558    0.019220    0.165607  
      5.545349  1.343320 11.231330     0.048475    0.019820   -0.165433  
      4.445445  3.560536 11.231617    -0.047421    0.019354   -0.165676  
      2.229646  3.560545 12.532849     0.048624    0.019614    0.165427  
      4.548233  2.222720 10.902218    -0.345358   -0.178106   -0.129535  
      2.126657  2.222752 12.862106     0.344804   -0.177510    0.129279  
      1.232540  0.005505 12.861951    -0.344955   -0.178132    0.129684  
      5.442374  0.005523 10.902060     0.345056   -0.177345   -0.129224  
      0.022017  1.832333 11.881665     0.000597    0.324142    0.000223  
      3.337726  4.049548 11.882512     0.000713    0.323935   -0.000323  
 
  19 f  =   14.607083 THz    91.779012 2PiTHz  487.239840 cm-1    60.410063 meV
             X         Y         Z           dx          dy          dz
      1.129743  1.343309 12.532560     0.163937    0.200254    0.032771  
      5.545349  1.343320 11.231330     0.165190   -0.189017    0.041598  
      4.445445  3.560536 11.231617    -0.163974   -0.200237    0.032611  
      2.229646  3.560545 12.532849    -0.165149    0.189044    0.041744  
      4.548233  2.222720 10.902218     0.364626   -0.123272   -0.111726  
      2.126657  2.222752 12.862106     0.385961    0.103573   -0.130271  
      1.232540  0.005505 12.861951    -0.364927    0.123122   -0.111588  
      5.442374  0.005523 10.902060    -0.385675   -0.103710   -0.130389  
      0.022017  1.832333 11.881665     0.119172    0.034606    0.120506  
      3.337726  4.049548 11.882512    -0.119158   -0.034359    0.120513  
 
  20 f  =   14.526110 THz    91.270243 2PiTHz  484.538870 cm-1    60.075185 meV
             X         Y         Z           dx          dy          dz
      1.129743  1.343309 12.532560    -0.054078    0.075658   -0.051908  
      5.545349  1.343320 11.231330     0.034330    0.099568    0.047462  
      4.445445  3.560536 11.231617     0.054097   -0.075665   -0.051859  
      2.229646  3.560545 12.532849    -0.034354   -0.099579    0.047362  
      4.548233  2.222720 10.902218    -0.145473   -0.142957    0.183623  
      2.126657  2.222752 12.862106     0.099926   -0.157001   -0.168604  
      1.232540  0.005505 12.861951     0.145617    0.143025    0.183517  
      5.442374  0.005523 10.902060    -0.100071    0.157079   -0.168585  
      0.022017  1.832333 11.881665    -0.006972    0.580277   -0.007461  
      3.337726  4.049548 11.882512     0.006995   -0.580410   -0.007437  
 
  21 f  =   12.835255 THz    80.646287 2PiTHz  428.138018 cm-1    53.082368 meV
             X         Y         Z           dx          dy          dz
      1.129743  1.343309 12.532560    -0.219487   -0.044967    0.118947  
      5.545349  1.343320 11.231330     0.221419   -0.049186   -0.118481  
      4.445445  3.560536 11.231617     0.219483    0.044977    0.118915  
      2.229646  3.560545 12.532849    -0.221414    0.049192   -0.118467  
      4.548233  2.222720 10.902218     0.378705    0.075926    0.183737  
      2.126657  2.222752 12.862106    -0.372405    0.078857   -0.185786  
      1.232540  0.005505 12.861951    -0.378752   -0.075946    0.183761  
      5.442374  0.005523 10.902060     0.372436   -0.078858   -0.185816  
      0.022017  1.832333 11.881665     0.000278    0.088179    0.000969  
      3.337726  4.049548 11.882512    -0.000267   -0.088171    0.000967  
 
  22 f  =    8.301235 THz    52.158199 2PiTHz  276.899391 cm-1    34.331161 meV
             X         Y         Z           dx          dy          dz
      1.129743  1.343309 12.532560    -0.052802   -0.037385   -0.047866  
      5.545349  1.343320 11.231330    -0.052658    0.037463   -0.048288  
      4.445445  3.560536 11.231617    -0.052773   -0.037402    0.047839  
      2.229646  3.560545 12.532849    -0.052694    0.037413    0.048315  
      4.548233  2.222720 10.902218     0.029085    0.049069   -0.470765  
      2.126657  2.222752 12.862106     0.028758   -0.048830   -0.469778  
      1.232540  0.005505 12.861951     0.029012    0.049054    0.470587  
      5.442374  0.005523 10.902060     0.028831   -0.048808    0.469978  
      0.022017  1.832333 11.881665     0.029111   -0.000206   -0.193360  
      3.337726  4.049548 11.882512     0.029091   -0.000395    0.193341  
 
  23 f  =    5.727266 THz    35.985476 2PiTHz  191.041036 cm-1    23.686078 meV
             X         Y         Z           dx          dy          dz
      1.129743  1.343309 12.532560    -0.071295    0.238513   -0.076596  
      5.545349  1.343320 11.231330    -0.068428   -0.234821   -0.076353  
      4.445445  3.560536 11.231617     0.071296   -0.238519   -0.076592  
      2.229646  3.560545 12.532849     0.068424    0.234817   -0.076371  
      4.548233  2.222720 10.902218    -0.168173   -0.337771   -0.080588  
      2.126657  2.222752 12.862106    -0.174208    0.337734   -0.057775  
      1.232540  0.005505 12.861951     0.168184    0.337770   -0.080577  
      5.442374  0.005523 10.902060     0.174220   -0.337741   -0.057735  
      0.022017  1.832333 11.881665    -0.263054    0.007862    0.025104  
      3.337726  4.049548 11.882512     0.263050   -0.007868    0.025091  
 
  24 f  =    5.535410 THz    34.780009 2PiTHz  184.641408 cm-1    22.892625 meV
             X         Y         Z           dx          dy          dz
      1.129743  1.343309 12.532560    -0.064157    0.057802    0.001367  
      5.545349  1.343320 11.231330     0.067968    0.070128    0.002777  
      4.445445  3.560536 11.231617     0.064178   -0.057771    0.001266  
      2.229646  3.560545 12.532849    -0.067944   -0.070132    0.002705  
      4.548233  2.222720 10.902218     0.147104    0.014439   -0.421107  
      2.126657  2.222752 12.862106    -0.137682   -0.003391    0.424922  
      1.232540  0.005505 12.861951    -0.147071   -0.014444   -0.421259  
      5.442374  0.005523 10.902060     0.137699    0.003435    0.424720  
      0.022017  1.832333 11.881665     0.006876    0.290287   -0.000420  
      3.337726  4.049548 11.882512    -0.006985   -0.290291   -0.000742  
 
  25 f  =    5.128667 THz    32.224365 2PiTHz  171.073910 cm-1    21.210469 meV
             X         Y         Z           dx          dy          dz
      1.129743  1.343309 12.532560     0.033208   -0.016637   -0.208769  
      5.545349  1.343320 11.231330    -0.031812   -0.016554    0.209139  
      4.445445  3.560536 11.231617     0.033162   -0.016697    0.208828  
      2.229646  3.560545 12.532849    -0.031884   -0.016499   -0.209088  
      4.548233  2.222720 10.902218    -0.137576   -0.073591    0.405878  
      2.126657  2.222752 12.862106     0.139433   -0.073494   -0.407091  
      1.232540  0.005505 12.861951    -0.137606   -0.073502   -0.405735  
      5.442374  0.005523 10.902060     0.139453   -0.073588    0.407281  
      0.022017  1.832333 11.881665     0.000634    0.174174    0.000438  
      3.337726  4.049548 11.882512     0.000408    0.174163   -0.000689  
 
  26 f  =    2.895542 THz    18.193225 2PiTHz   96.584871 cm-1    11.975002 meV
             X         Y         Z           dx          dy          dz
      1.129743  1.343309 12.532560    -0.086942   -0.082114   -0.033622  
      5.545349  1.343320 11.231330    -0.087082    0.082159   -0.033473  
      4.445445  3.560536 11.231617     0.086957    0.082144   -0.033816  
      2.229646  3.560545 12.532849     0.087060   -0.082128   -0.033920  
      4.548233  2.222720 10.902218     0.030876    0.149669   -0.256158  
      2.126657  2.222752 12.862106     0.031186   -0.149693   -0.256553  
      1.232540  0.005505 12.861951    -0.030749   -0.149670   -0.256150  
      5.442374  0.005523 10.902060    -0.030891    0.149701   -0.256014  
      0.022017  1.832333 11.881665    -0.331457    0.000275    0.426403  
      3.337726  4.049548 11.882512     0.331031   -0.000129    0.425303  
 
  27 f  =    2.436503 THz    15.309002 2PiTHz   81.273001 cm-1    10.076571 meV
             X         Y         Z           dx          dy          dz
      1.129743  1.343309 12.532560     0.001386    0.000022   -0.164779  
      5.545349  1.343320 11.231330     0.001322    0.000703   -0.164302  
      4.445445  3.560536 11.231617     0.001582    0.000149    0.164730  
      2.229646  3.560545 12.532849     0.001458    0.000525    0.164207  
      4.548233  2.222720 10.902218    -0.109673    0.002738    0.136071  
      2.126657  2.222752 12.862106    -0.109141   -0.002177    0.135219  
      1.232540  0.005505 12.861951    -0.109776    0.002454   -0.136742  
      5.442374  0.005523 10.902060    -0.109141   -0.001907   -0.135534  
      0.022017  1.832333 11.881665     0.227214    0.000573   -0.576831  
      3.337726  4.049548 11.882512     0.227857    0.000486    0.577645  
 
  28 f/i=    0.008416 THz     0.052877 2PiTHz    0.280714 cm-1     0.034804 meV
             X         Y         Z           dx          dy          dz
      1.129743  1.343309 12.532560     0.037657   -0.276027    0.000100  
      5.545349  1.343320 11.231330     0.037740   -0.276014   -0.000141  
      4.445445  3.560536 11.231617     0.037670   -0.276013   -0.000104  
      2.229646  3.560545 12.532849     0.037747   -0.276033    0.000137  
      4.548233  2.222720 10.902218     0.045864   -0.335931   -0.000224  
      2.126657  2.222752 12.862106     0.045786   -0.335950    0.000247  
      1.232540  0.005505 12.861951     0.045852   -0.335959    0.000172  
      5.442374  0.005523 10.902060     0.045787   -0.335923   -0.000264  
      0.022017  1.832333 11.881665     0.045850   -0.335800   -0.000018  
      3.337726  4.049548 11.882512     0.045891   -0.335810    0.000075  
 
  29 f/i=    0.028114 THz     0.176648 2PiTHz    0.937795 cm-1     0.116272 meV
             X         Y         Z           dx          dy          dz
      1.129743  1.343309 12.532560    -0.276107   -0.037678   -0.001557  
      5.545349  1.343320 11.231330    -0.276287   -0.037652   -0.000831  
      4.445445  3.560536 11.231617    -0.276100   -0.037681    0.001554  
      2.229646  3.560545 12.532849    -0.276279   -0.037651    0.000832  
      4.548233  2.222720 10.902218    -0.337388   -0.046040    0.001778  
      2.126657  2.222752 12.862106    -0.335896   -0.046247    0.000155  
      1.232540  0.005505 12.861951    -0.337387   -0.046041   -0.001779  
      5.442374  0.005523 10.902060    -0.335903   -0.046243   -0.000165  
      0.022017  1.832333 11.881665    -0.334080   -0.045284   -0.004407  
      3.337726  4.049548 11.882512    -0.334062   -0.045289    0.004411  
 
  30 f/i=    7.459741 THz    46.870937 2PiTHz  248.830177 cm-1    30.851021 meV
             X         Y         Z           dx          dy          dz
      1.129743  1.343309 12.532560    -0.046552    0.042054    0.368796  
      5.545349  1.343320 11.231330    -0.046601   -0.042030    0.368828  
      4.445445  3.560536 11.231617     0.046549   -0.042055    0.368785  
      2.229646  3.560545 12.532849     0.046604    0.042030    0.368845  
      4.548233  2.222720 10.902218    -0.025287   -0.048103    0.226739  
      2.126657  2.222752 12.862106    -0.025139    0.048100    0.226776  
      1.232540  0.005505 12.861951     0.025292    0.048107    0.226768  
      5.442374  0.005523 10.902060     0.025132   -0.048097    0.226754  
      0.022017  1.832333 11.881665    -0.045435   -0.000020    0.330565  
      3.337726  4.049548 11.882512     0.045434    0.000010    0.330575  
 


--------------------------------------------------------------------------------------------------------




 MACROSCOPIC STATIC DIELECTRIC TENSOR IONIC CONTRIBUTION
 ------------------------------------------------------
           0.244999    -0.000020     0.000001
          -0.000020     0.296052    -0.000001
           0.000001    -0.000001     0.014799
 ------------------------------------------------------


 ELASTIC MODULI CONTR FROM IONIC RELAXATION (kBar)
 Direction    XX          YY          ZZ          XY          YZ          ZX
 --------------------------------------------------------------------------------
 XX        -600.1878   -175.7155   -158.9976     -0.1205     -0.0011     -0.0005
 YY        -175.7155   -547.4570    -59.8732      0.1614      0.0011      0.0047
 ZZ        -158.9976    -59.8732    -50.1219     -0.0524      0.0004     -0.0010
 XY          -0.1205      0.1614     -0.0524   -206.8166      0.0001     -0.0007
 YZ          -0.0011      0.0011      0.0004      0.0001    -85.4720     -0.0791
 ZX          -0.0005      0.0047     -0.0010     -0.0007     -0.0791   -159.9472
 --------------------------------------------------------------------------------


 PIEZOELECTRIC TENSOR IONIC CONTR  for field in x, y, z        (C/m^2)
          XX          YY          ZZ          XY          YZ          ZX
  --------------------------------------------------------------------------------
  x    -0.00010    -0.00014    -0.00003     0.06616    -0.00000    -0.00000
  y     0.05555    -0.08841    -0.00250    -0.00005     0.00000    -0.00000
  z     0.00000    -0.00000     0.00000    -0.00000     0.00663    -0.00000


--------------------------------------------------------------------------------------------------------


 writing wavefunctions
     LOOP+:  cpu time  333.6498: real time  338.5398
    4ORBIT:  cpu time    0.0000: real time    0.0000

 total amount of memory used by VASP MPI-rank0    37936. kBytes
=======================================================================

   base      :      30000. kBytes
   nonl-proj :       2808. kBytes
   fftplans  :       1311. kBytes
   grid      :       2108. kBytes
   one-center:          3. kBytes
   wavefun   :       1706. kBytes
 
  
  
 General timing and accounting informations for this job:
 ========================================================
  
                  Total CPU time used (sec):      341.636
                            User time (sec):      334.876
                          System time (sec):        6.760
                         Elapsed time (sec):      346.744
  
                   Maximum memory used (kb):      150340.
                   Average memory used (kb):           0.
  
                          Minor page faults:        29485
                          Major page faults:         1025
                 Voluntary context switches:         2662
