 vasp.5.4.4.18Apr17-6-g9f103f2a35 (build Jan 05 2022 20:33:25) complex          
  
 04/POSCAR found :  2 types and       6 ions
 scaLAPACK will be used
 LDA part: xc-table for Pade appr. of Perdew
 00/POSCAR found :  2 types and       6 ions
 06/POSCAR found :  2 types and       6 ions
 Jacobian:    11.4326695265214     
 POSCAR, INCAR and KPOINTS ok, starting setup
 FFT: planning ...
 WAVECAR not read
 entering main loop
       N       E                     dE             d eps       ncg     rms          rms(c)
DAV:   1     0.268036244013E+03    0.26804E+03   -0.11493E+04  3264   0.117E+03
DAV:   2     0.129055102877E+01   -0.26675E+03   -0.25808E+03  5240   0.184E+02
DAV:   3    -0.342529298968E+02   -0.35543E+02   -0.35048E+02  4336   0.763E+01
DAV:   4    -0.357324780204E+02   -0.14795E+01   -0.14704E+01  5128   0.190E+01
DAV:   5    -0.357602777714E+02   -0.27800E-01   -0.27767E-01  4760   0.273E+00    0.217E+01
DAV:   6    -0.348326872615E+02    0.92759E+00   -0.35516E+00  4696   0.936E+00    0.921E+00
DAV:   7    -0.349000559245E+02   -0.67369E-01   -0.53861E+00  4256   0.114E+01    0.628E+00
DAV:   8    -0.344458839912E+02    0.45417E+00   -0.24236E+00  4512   0.682E+00    0.263E+00
DAV:   9    -0.344226645616E+02    0.23219E-01   -0.84227E-01  4648   0.388E+00    0.164E+00
DAV:  10    -0.343990152314E+02    0.23649E-01   -0.18721E-01  4672   0.206E+00    0.769E-01
DAV:  11    -0.343957424335E+02    0.32728E-02   -0.20801E-02  4424   0.729E-01    0.380E-01
DAV:  12    -0.343948999052E+02    0.84253E-03   -0.33902E-03  4440   0.291E-01    0.197E-01
DAV:  13    -0.343945598073E+02    0.34010E-03   -0.10335E-03  4440   0.154E-01    0.682E-02
DAV:  14    -0.343944275623E+02    0.13225E-03   -0.38285E-04  4336   0.831E-02    0.290E-02
DAV:  15    -0.343944169540E+02    0.10608E-04   -0.22719E-04  4240   0.576E-02    0.337E-02
DAV:  16    -0.343944530476E+02   -0.36094E-04   -0.23573E-05  4456   0.223E-02    0.234E-02
DAV:  17    -0.343945539361E+02   -0.10089E-03   -0.13419E-05  4432   0.152E-02    0.131E-02
DAV:  18    -0.343946900050E+02   -0.13607E-03   -0.46078E-05  3800   0.238E-02    0.740E-03
DAV:  19    -0.343947514545E+02   -0.61450E-04   -0.49808E-06  4072   0.103E-02    0.382E-03
DAV:  20    -0.343948265692E+02   -0.75115E-04   -0.39630E-06  3288   0.918E-03    0.265E-03
DAV:  21    -0.343948539568E+02   -0.27388E-04   -0.12422E-06  3224   0.439E-03    0.239E-03
DAV:  22    -0.343948792837E+02   -0.25327E-04   -0.45681E-07  2736   0.260E-03    0.162E-03
DAV:  23    -0.343948868662E+02   -0.75825E-05   -0.15100E-07  2592   0.134E-03    0.716E-04
DAV:  24    -0.343948940920E+02   -0.72258E-05   -0.18863E-07  2616   0.136E-03    0.660E-04
DAV:  25    -0.343948967259E+02   -0.26339E-05   -0.62387E-08  2248   0.814E-04    0.369E-04
DAV:  26    -0.343948979424E+02   -0.12166E-05   -0.26424E-08  1960   0.455E-04    0.166E-04
DAV:  27    -0.343948986160E+02   -0.67355E-06   -0.19525E-08  2040   0.344E-04
   1 F= -.34394899E+02 E0= -.34388748E+02  d E =-.343949E+02
quench:  g(F)=  0.000E+00 g(S)=  0.000E+00 dE (1.order)= 0.000E+00
 bond charge predicted
       N       E                     dE             d eps       ncg     rms          rms(c)
DAV:   1    -0.345340914987E+02   -0.13919E+00   -0.30735E+00  3264   0.851E+00    0.730E-01
DAV:   2    -0.345378741876E+02   -0.37827E-02   -0.61153E-02  4384   0.125E+00    0.451E-01
DAV:   3    -0.345388561624E+02   -0.98197E-03   -0.41291E-02  4792   0.886E-01    0.404E-01
DAV:   4    -0.345366529101E+02    0.22033E-02   -0.27098E-02  4720   0.666E-01    0.240E-01
DAV:   5    -0.345361443602E+02    0.50855E-03   -0.26333E-03  4360   0.221E-01    0.114E-01
DAV:   6    -0.345360898189E+02    0.54541E-04   -0.59359E-04  4472   0.124E-01    0.342E-02
DAV:   7    -0.345360781019E+02    0.11717E-04   -0.87333E-05  4320   0.561E-02    0.156E-02
DAV:   8    -0.345360784328E+02   -0.33093E-06   -0.99765E-06  4696   0.155E-02
   2 F= -.34536078E+02 E0= -.34530009E+02  d E =-.141180E+00
quench:  g(F)=  0.000E+00 g(S)=  0.000E+00 dE (1.order)= 0.000E+00
 bond charge predicted
       N       E                     dE             d eps       ncg     rms          rms(c)
DAV:   1    -0.346983342714E+02   -0.16226E+00   -0.91866E+00  3264   0.147E+01    0.122E+00
DAV:   2    -0.347095752673E+02   -0.11241E-01   -0.16970E-01  4376   0.207E+00    0.703E-01
DAV:   3    -0.347118391063E+02   -0.22638E-02   -0.87369E-02  4824   0.131E+00    0.611E-01
DAV:   4    -0.347071476843E+02    0.46914E-02   -0.63047E-02  4752   0.102E+00    0.395E-01
DAV:   5    -0.347057415122E+02    0.14062E-02   -0.70782E-03  4360   0.368E-01    0.173E-01
DAV:   6    -0.347055858443E+02    0.15567E-03   -0.16255E-03  4608   0.206E-01    0.497E-02
DAV:   7    -0.347055641910E+02    0.21653E-04   -0.19682E-04  4208   0.858E-02    0.252E-02
DAV:   8    -0.347055649053E+02   -0.71433E-06   -0.24664E-05  5168   0.238E-02    0.204E-02
DAV:   9    -0.347055633936E+02    0.15117E-05   -0.11803E-05  4496   0.169E-02    0.977E-03
DAV:  10    -0.347055630198E+02    0.37383E-06   -0.48398E-06  3312   0.111E-02
   3 F= -.34705563E+02 E0= -.34699890E+02  d E =-.169485E+00
quench:  g(F)=  0.000E+00 g(S)=  0.000E+00 dE (1.order)= 0.000E+00
 bond charge predicted
       N       E                     dE             d eps       ncg     rms          rms(c)
DAV:   1    -0.348105234200E+02   -0.10496E+00   -0.10889E+01  3264   0.160E+01    0.132E+00
DAV:   2    -0.348241940589E+02   -0.13671E-01   -0.19453E-01  4392   0.220E+00    0.719E-01
DAV:   3    -0.348247561960E+02   -0.56214E-03   -0.44457E-02  4896   0.986E-01    0.508E-01
DAV:   4    -0.348242378910E+02    0.51831E-03   -0.52660E-02  4840   0.941E-01    0.502E-01
DAV:   5    -0.348218788927E+02    0.23590E-02   -0.15888E-02  4800   0.544E-01    0.215E-01
DAV:   6    -0.348213839055E+02    0.49499E-03   -0.26515E-03  4576   0.258E-01    0.344E-02
DAV:   7    -0.348213957649E+02   -0.11859E-04   -0.20216E-04  4344   0.789E-02    0.338E-02
DAV:   8    -0.348213927171E+02    0.30478E-05   -0.15920E-05  4696   0.211E-02    0.314E-02
DAV:   9    -0.348213910843E+02    0.16328E-05   -0.46350E-06  4176   0.989E-03    0.162E-02
DAV:  10    -0.348213915239E+02   -0.43966E-06   -0.52657E-06  4000   0.997E-03
   4 F= -.34821392E+02 E0= -.34815032E+02  d E =-.115829E+00
quench:  g(F)=  0.000E+00 g(S)=  0.000E+00 dE (1.order)= 0.000E+00
 bond charge predicted
       N       E                     dE             d eps       ncg     rms          rms(c)
DAV:   1    -0.348631032972E+02   -0.41712E-01   -0.88432E+00  3264   0.145E+01    0.119E+00
DAV:   2    -0.348762751215E+02   -0.13172E-01   -0.18330E-01  4368   0.213E+00    0.672E-01
DAV:   3    -0.348752210394E+02    0.10541E-02   -0.13805E-02  4440   0.663E-01    0.367E-01
DAV:   4    -0.348752657142E+02   -0.44675E-04   -0.61920E-03  4584   0.417E-01    0.351E-01
DAV:   5    -0.348746868696E+02    0.57884E-03   -0.48451E-03  4592   0.347E-01    0.745E-02
DAV:   6    -0.348746129555E+02    0.73914E-04   -0.84386E-04  4760   0.157E-01    0.599E-02
DAV:   7    -0.348745959099E+02    0.17046E-04   -0.22687E-04  4720   0.710E-02    0.490E-02
DAV:   8    -0.348745924114E+02    0.34985E-05   -0.25574E-05  4552   0.267E-02    0.382E-02
DAV:   9    -0.348745893808E+02    0.30307E-05   -0.21520E-05  3920   0.216E-02    0.515E-03
DAV:  10    -0.348745909819E+02   -0.16011E-05   -0.33136E-06  3168   0.917E-03    0.213E-03
DAV:  11    -0.348745923445E+02   -0.13626E-05   -0.49737E-07  2152   0.450E-03    0.181E-03
DAV:  12    -0.348745950765E+02   -0.27320E-05   -0.32624E-07  2152   0.251E-03    0.106E-03
DAV:  13    -0.348745980798E+02   -0.30033E-05   -0.34620E-07  2368   0.210E-03    0.129E-03
DAV:  14    -0.348745997344E+02   -0.16545E-05   -0.11045E-07  1904   0.123E-03    0.102E-03
DAV:  15    -0.348746023846E+02   -0.26503E-05   -0.25147E-07  2376   0.138E-03    0.378E-04
DAV:  16    -0.348746033311E+02   -0.94642E-06   -0.86056E-08  2008   0.887E-04
   5 F= -.34874603E+02 E0= -.34867135E+02  d E =-.532118E-01
quench:  g(F)=  0.000E+00 g(S)=  0.000E+00 dE (1.order)= 0.000E+00
 bond charge predicted
       N       E                     dE             d eps       ncg     rms          rms(c)
DAV:   1    -0.348719114837E+02    0.26909E-02   -0.93259E+00  3264   0.149E+01    0.782E-01
DAV:   2    -0.348828556840E+02   -0.10944E-01   -0.13733E-01  4432   0.184E+00    0.391E-01
DAV:   3    -0.348821514514E+02    0.70423E-03   -0.65563E-03  4576   0.447E-01    0.246E-01
DAV:   4    -0.348821580196E+02   -0.65682E-05   -0.53840E-03  4888   0.354E-01    0.248E-01
DAV:   5    -0.348819424335E+02    0.21559E-03   -0.69902E-03  4928   0.367E-01    0.173E-01
DAV:   6    -0.348814787035E+02    0.46373E-03   -0.29380E-03  4848   0.239E-01    0.353E-02
DAV:   7    -0.348814767014E+02    0.20021E-05   -0.14133E-04  3992   0.634E-02    0.274E-02
DAV:   8    -0.348814764259E+02    0.27553E-06   -0.19949E-05  5056   0.205E-02    0.240E-02
DAV:   9    -0.348814739989E+02    0.24270E-05   -0.10065E-05  4048   0.148E-02    0.438E-03
DAV:  10    -0.348814742896E+02   -0.29076E-06   -0.23294E-06  2840   0.827E-03
   6 F= -.34881474E+02 E0= -.34873223E+02  d E =-.687096E-02
quench:  g(F)=  0.000E+00 g(S)=  0.000E+00 dE (1.order)= 0.000E+00
 bond charge predicted
       N       E                     dE             d eps       ncg     rms          rms(c)
DAV:   1    -0.348806506446E+02    0.82335E-03   -0.34589E+00  3264   0.904E+00    0.771E-01
DAV:   2    -0.348864917341E+02   -0.58411E-02   -0.74282E-02  4528   0.134E+00    0.272E-01
DAV:   3    -0.348869945002E+02   -0.50277E-03   -0.15819E-02  4664   0.618E-01    0.295E-01
DAV:   4    -0.348859612100E+02    0.10333E-02   -0.80560E-03  4896   0.399E-01    0.166E-01
DAV:   5    -0.348858441407E+02    0.11707E-03   -0.10232E-03  4584   0.147E-01    0.104E-01
DAV:   6    -0.348858099988E+02    0.34142E-04   -0.70963E-04  4360   0.129E-01    0.506E-02
DAV:   7    -0.348857740808E+02    0.35918E-04   -0.17410E-04  4320   0.706E-02    0.114E-02
DAV:   8    -0.348857741900E+02   -0.10919E-06   -0.17856E-05  4656   0.223E-02    0.965E-03
DAV:   9    -0.348857742661E+02   -0.76061E-07   -0.35502E-06  3320   0.961E-03
   7 F= -.34885774E+02 E0= -.34877870E+02  d E =-.429998E-02
quench:  g(F)=  0.000E+00 g(S)=  0.000E+00 dE (1.order)= 0.000E+00
 bond charge predicted
       N       E                     dE             d eps       ncg     rms          rms(c)
DAV:   1    -0.348893484097E+02   -0.35742E-02   -0.71233E-02  3264   0.130E+00    0.113E-01
DAV:   2    -0.348894283037E+02   -0.79894E-04   -0.10486E-03  4496   0.163E-01    0.379E-02
DAV:   3    -0.348894354500E+02   -0.71463E-05   -0.22939E-04  4720   0.704E-02    0.388E-02
DAV:   4    -0.348894198004E+02    0.15650E-04   -0.14439E-04  4856   0.521E-02    0.246E-02
DAV:   5    -0.348894164077E+02    0.33927E-05   -0.17553E-05  4320   0.195E-02    0.936E-03
DAV:   6    -0.348894169054E+02   -0.49771E-06   -0.40896E-06  3216   0.117E-02
   8 F= -.34889417E+02 E0= -.34881458E+02  d E =-.364264E-02
quench:  g(F)=  0.000E+00 g(S)=  0.000E+00 dE (1.order)= 0.000E+00
 bond charge predicted
       N       E                     dE             d eps       ncg     rms          rms(c)
DAV:   1    -0.348962967041E+02   -0.68803E-02   -0.22495E-01  3264   0.230E+00    0.197E-01
DAV:   2    -0.348965558398E+02   -0.25914E-03   -0.33755E-03  4504   0.292E-01    0.689E-02
DAV:   3    -0.348965892073E+02   -0.33367E-04   -0.92122E-04  4792   0.141E-01    0.732E-02
DAV:   4    -0.348965212778E+02    0.67930E-04   -0.54761E-04  4888   0.101E-01    0.419E-02
DAV:   5    -0.348965093559E+02    0.11922E-04   -0.46963E-05  3952   0.330E-02    0.151E-02
DAV:   6    -0.348965095141E+02   -0.15818E-06   -0.83272E-06  4288   0.165E-02
   9 F= -.34896510E+02 E0= -.34888479E+02  d E =-.709261E-02
quench:  g(F)=  0.000E+00 g(S)=  0.000E+00 dE (1.order)= 0.000E+00
 bond charge predicted
       N       E                     dE             d eps       ncg     rms          rms(c)
DAV:   1    -0.349082460528E+02   -0.11737E-01   -0.29354E-01  3264   0.264E+00    0.188E-01
DAV:   2    -0.349085951012E+02   -0.34905E-03   -0.43974E-03  4480   0.328E-01    0.702E-02
DAV:   3    -0.349086062312E+02   -0.11130E-04   -0.60895E-04  4904   0.118E-01    0.642E-02
DAV:   4    -0.349085696649E+02    0.36566E-04   -0.44591E-04  4848   0.918E-02    0.455E-02
DAV:   5    -0.349085510369E+02    0.18628E-04   -0.81242E-05  4112   0.424E-02    0.100E-02
DAV:   6    -0.349085518619E+02   -0.82494E-06   -0.85229E-06  4720   0.161E-02
  10 F= -.34908552E+02 E0= -.34900508E+02  d E =-.120423E-01
quench:  g(F)=  0.000E+00 g(S)=  0.000E+00 dE (1.order)= 0.000E+00
 bond charge predicted
       N       E                     dE             d eps       ncg     rms          rms(c)
DAV:   1    -0.349245197515E+02   -0.15969E-01   -0.31216E-01  3264   0.272E+00    0.174E-01
DAV:   2    -0.349249247572E+02   -0.40501E-03   -0.50273E-03  4416   0.345E-01    0.627E-02
DAV:   3    -0.349249136343E+02    0.11123E-04   -0.16959E-04  4552   0.680E-02    0.482E-02
DAV:   4    -0.349249133794E+02    0.25491E-06   -0.95172E-05  4920   0.455E-02    0.386E-02
DAV:   5    -0.349249099628E+02    0.34167E-05   -0.17160E-04  4992   0.561E-02    0.284E-02
DAV:   6    -0.349249009818E+02    0.89809E-05   -0.59682E-05  4784   0.361E-02    0.744E-03
DAV:   7    -0.349249005711E+02    0.41073E-06   -0.58634E-06  3568   0.131E-02
  11 F= -.34924901E+02 E0= -.34916944E+02  d E =-.163487E-01
quench:  g(F)=  0.000E+00 g(S)=  0.000E+00 dE (1.order)= 0.000E+00
 bond charge predicted
       N       E                     dE             d eps       ncg     rms          rms(c)
DAV:   1    -0.349463337602E+02   -0.21433E-01   -0.42678E-01  3264   0.318E+00    0.196E-01
DAV:   2    -0.349468806552E+02   -0.54690E-03   -0.67115E-03  4384   0.401E-01    0.739E-02
DAV:   3    -0.349468660935E+02    0.14562E-04   -0.22999E-04  4680   0.789E-02    0.563E-02
DAV:   4    -0.349468690516E+02   -0.29581E-05   -0.16499E-04  4960   0.589E-02    0.475E-02
DAV:   5    -0.349468551478E+02    0.13904E-04   -0.22907E-04  4968   0.654E-02    0.293E-02
DAV:   6    -0.349468469308E+02    0.82170E-05   -0.53111E-05  4552   0.355E-02    0.744E-03
DAV:   7    -0.349468467293E+02    0.20154E-06   -0.55697E-06  3648   0.131E-02
  12 F= -.34946847E+02 E0= -.34939018E+02  d E =-.219462E-01
quench:  g(F)=  0.000E+00 g(S)=  0.000E+00 dE (1.order)= 0.000E+00
 bond charge predicted
       N       E                     dE             d eps       ncg     rms          rms(c)
DAV:   1    -0.349739252445E+02   -0.27078E-01   -0.52230E-01  3264   0.352E+00    0.208E-01
DAV:   2    -0.349746033880E+02   -0.67814E-03   -0.81807E-03  4352   0.444E-01    0.828E-02
DAV:   3    -0.349745881957E+02    0.15192E-04   -0.31642E-04  4904   0.921E-02    0.636E-02
DAV:   4    -0.349745946566E+02   -0.64610E-05   -0.27249E-04  4984   0.750E-02    0.568E-02
DAV:   5    -0.349745660306E+02    0.28626E-04   -0.25074E-04  4960   0.693E-02    0.283E-02
DAV:   6    -0.349745609974E+02    0.50332E-05   -0.39939E-05  4016   0.330E-02    0.770E-03
DAV:   7    -0.349745608740E+02    0.12335E-06   -0.52520E-06  3552   0.128E-02
  13 F= -.34974561E+02 E0= -.34966901E+02  d E =-.277141E-01
quench:  g(F)=  0.000E+00 g(S)=  0.000E+00 dE (1.order)= 0.000E+00
 bond charge predicted
       N       E                     dE             d eps       ncg     rms          rms(c)
DAV:   1    -0.350068169437E+02   -0.32256E-01   -0.56954E-01  3264   0.368E+00    0.213E-01
DAV:   2    -0.350075938328E+02   -0.77689E-03   -0.92009E-03  4312   0.473E-01    0.863E-02
DAV:   3    -0.350075782384E+02    0.15594E-04   -0.33120E-04  4648   0.938E-02    0.664E-02
DAV:   4    -0.350075768467E+02    0.13917E-05   -0.16423E-04  4944   0.602E-02    0.532E-02
DAV:   5    -0.350075667278E+02    0.10119E-04   -0.26364E-04  4960   0.712E-02    0.375E-02
DAV:   6    -0.350075527774E+02    0.13950E-04   -0.84486E-05  4704   0.446E-02    0.944E-03
DAV:   7    -0.350075524912E+02    0.28624E-06   -0.82958E-06  4096   0.159E-02
  14 F= -.35007552E+02 E0= -.35000119E+02  d E =-.329916E-01
quench:  g(F)=  0.000E+00 g(S)=  0.000E+00 dE (1.order)= 0.000E+00
 bond charge predicted
       N       E                     dE             d eps       ncg     rms          rms(c)
DAV:   1    -0.350357091805E+02   -0.28156E-01   -0.46768E-01  3264   0.334E+00    0.235E-01
DAV:   2    -0.350363982089E+02   -0.68903E-03   -0.80716E-03  4432   0.448E-01    0.100E-01
DAV:   3    -0.350363987715E+02   -0.56254E-06   -0.78461E-04  4736   0.144E-01    0.767E-02
DAV:   4    -0.350363722173E+02    0.26554E-04   -0.64185E-04  4920   0.116E-01    0.649E-02
DAV:   5    -0.350363371832E+02    0.35034E-04   -0.23555E-04  4720   0.694E-02    0.235E-02
DAV:   6    -0.350363350182E+02    0.21650E-05   -0.51851E-05  4280   0.365E-02    0.805E-03
DAV:   7    -0.350363340754E+02    0.94278E-06   -0.65410E-06  4056   0.145E-02
  15 F= -.35036334E+02 E0= -.35029050E+02  d E =-.287816E-01
quench:  g(F)=  0.000E+00 g(S)=  0.000E+00 dE (1.order)= 0.000E+00
 bond charge predicted
       N       E                     dE             d eps       ncg     rms          rms(c)
DAV:   1    -0.350378960717E+02   -0.15611E-02   -0.94167E-03  3264   0.471E-01    0.442E-02
DAV:   2    -0.350379058743E+02   -0.98025E-05   -0.14618E-04  4496   0.626E-02    0.145E-02
DAV:   3    -0.350379073432E+02   -0.14690E-05   -0.42019E-05  4640   0.321E-02    0.159E-02
DAV:   4    -0.350379043556E+02    0.29876E-05   -0.20106E-05  4672   0.206E-02    0.891E-03
DAV:   5    -0.350379040577E+02    0.29794E-06   -0.22385E-06  2488   0.727E-03
  16 F= -.35037904E+02 E0= -.35030643E+02  d E =-.156998E-02
quench:  g(F)=  0.000E+00 g(S)=  0.000E+00 dE (1.order)= 0.000E+00
 bond charge predicted
       N       E                     dE             d eps       ncg     rms          rms(c)
DAV:   1    -0.350441674551E+02   -0.62631E-02   -0.27059E-02  3264   0.799E-01    0.662E-02
DAV:   2    -0.350442007409E+02   -0.33286E-04   -0.43867E-04  4472   0.107E-01    0.211E-02
DAV:   3    -0.350442010682E+02   -0.32730E-06   -0.49612E-05  4456   0.365E-02    0.198E-02
DAV:   4    -0.350441988393E+02    0.22288E-05   -0.20881E-05  4856   0.225E-02    0.141E-02
DAV:   5    -0.350441985163E+02    0.32308E-06   -0.88586E-06  3736   0.136E-02
  17 F= -.35044199E+02 E0= -.35036988E+02  d E =-.629446E-02
quench:  g(F)=  0.000E+00 g(S)=  0.000E+00 dE (1.order)= 0.000E+00
 bond charge predicted
       N       E                     dE             d eps       ncg     rms          rms(c)
DAV:   1    -0.350560870659E+02   -0.11888E-01   -0.53366E-02  3264   0.112E+00    0.688E-02
DAV:   2    -0.350561598244E+02   -0.72759E-04   -0.87274E-04  4352   0.149E-01    0.260E-02
DAV:   3    -0.350561580791E+02    0.17453E-05   -0.41435E-05  4192   0.332E-02    0.213E-02
DAV:   4    -0.350561572448E+02    0.83433E-06   -0.65069E-06  4424   0.138E-02
  18 F= -.35056157E+02 E0= -.35049023E+02  d E =-.119587E-01
quench:  g(F)=  0.000E+00 g(S)=  0.000E+00 dE (1.order)= 0.000E+00
 bond charge predicted
       N       E                     dE             d eps       ncg     rms          rms(c)
DAV:   1    -0.350736271513E+02   -0.17469E-01   -0.10052E-01  3264   0.154E+00    0.760E-02
DAV:   2    -0.350737731656E+02   -0.14601E-03   -0.17055E-03  4304   0.209E-01    0.443E-02
DAV:   3    -0.350737736663E+02   -0.50070E-06   -0.27098E-04  4856   0.827E-02    0.391E-02
DAV:   4    -0.350737596328E+02    0.14034E-04   -0.11508E-04  4904   0.490E-02    0.259E-02
DAV:   5    -0.350737556316E+02    0.40012E-05   -0.16796E-05  3960   0.206E-02    0.118E-02
DAV:   6    -0.350737558015E+02   -0.16988E-06   -0.68983E-06  4024   0.139E-02
  19 F= -.35073756E+02 E0= -.35066718E+02  d E =-.175986E-01
quench:  g(F)=  0.000E+00 g(S)=  0.000E+00 dE (1.order)= 0.000E+00
 bond charge predicted
       N       E                     dE             d eps       ncg     rms          rms(c)
DAV:   1    -0.350948964893E+02   -0.21141E-01   -0.14531E-01  3264   0.185E+00    0.966E-02
DAV:   2    -0.350951084447E+02   -0.21196E-03   -0.24271E-03  4264   0.247E-01    0.450E-02
DAV:   3    -0.350951066190E+02    0.18256E-05   -0.11465E-04  4952   0.558E-02    0.341E-02
DAV:   4    -0.350951072065E+02   -0.58742E-06   -0.87138E-05  4984   0.434E-02    0.304E-02
DAV:   5    -0.350950993158E+02    0.78907E-05   -0.55871E-05  4816   0.337E-02    0.145E-02
DAV:   6    -0.350950988937E+02    0.42207E-06   -0.83714E-06  3592   0.157E-02
  20 F= -.35095099E+02 E0= -.35088193E+02  d E =-.213431E-01
quench:  g(F)=  0.000E+00 g(S)=  0.000E+00 dE (1.order)= 0.000E+00
 bond charge predicted
       N       E                     dE             d eps       ncg     rms          rms(c)
DAV:   1    -0.351173901180E+02   -0.22291E-01   -0.16634E-01  3264   0.198E+00    0.114E-01
DAV:   2    -0.351176449162E+02   -0.25480E-03   -0.29324E-03  4272   0.270E-01    0.515E-02
DAV:   3    -0.351176425957E+02    0.23205E-05   -0.10320E-04  4840   0.531E-02    0.361E-02
DAV:   4    -0.351176452247E+02   -0.26290E-05   -0.70251E-05  4992   0.396E-02    0.324E-02
DAV:   5    -0.351176394198E+02    0.58049E-05   -0.92808E-05  4896   0.433E-02    0.189E-02
DAV:   6    -0.351176371412E+02    0.22786E-05   -0.20553E-05  4392   0.220E-02    0.397E-03
DAV:   7    -0.351176371290E+02    0.12271E-07   -0.17407E-06  2496   0.768E-03
  21 F= -.35117637E+02 E0= -.35110883E+02  d E =-.225382E-01
quench:  g(F)=  0.000E+00 g(S)=  0.000E+00 dE (1.order)= 0.000E+00
 bond charge predicted
       N       E                     dE             d eps       ncg     rms          rms(c)
DAV:   1    -0.351336830536E+02   -0.16046E-01   -0.13306E-01  3264   0.177E+00    0.964E-02
DAV:   2    -0.351339035032E+02   -0.22045E-03   -0.24930E-03  4208   0.247E-01    0.428E-02
DAV:   3    -0.351339051384E+02   -0.16352E-05   -0.18516E-04  4888   0.706E-02    0.355E-02
DAV:   4    -0.351338983395E+02    0.67990E-05   -0.10409E-04  4944   0.475E-02    0.278E-02
DAV:   5    -0.351338929071E+02    0.54323E-05   -0.26801E-05  4704   0.246E-02    0.130E-02
DAV:   6    -0.351338929992E+02   -0.92075E-07   -0.78074E-06  3784   0.150E-02
  22 F= -.35133893E+02 E0= -.35127254E+02  d E =-.162559E-01
quench:  g(F)=  0.000E+00 g(S)=  0.000E+00 dE (1.order)= 0.000E+00
 bond charge predicted
       N       E                     dE             d eps       ncg     rms          rms(c)
DAV:   1    -0.351335808675E+02    0.31204E-03   -0.23172E-04  3264   0.740E-02    0.563E-03
DAV:   2    -0.351335811557E+02   -0.28823E-06   -0.33805E-06  3880   0.969E-03
  23 F= -.35133581E+02 E0= -.35126942E+02  d E =0.311843E-03
quench:  g(F)=  0.000E+00 g(S)=  0.000E+00 dE (1.order)= 0.000E+00
 bond charge predicted
       N       E                     dE             d eps       ncg     rms          rms(c)
DAV:   1    -0.351343663571E+02   -0.78549E-03   -0.33018E-04  3272   0.884E-02    0.611E-03
DAV:   2    -0.351343668561E+02   -0.49897E-06   -0.57191E-06  4304   0.120E-02
  24 F= -.35134367E+02 E0= -.35127730E+02  d E =-.785700E-03
quench:  g(F)=  0.000E+00 g(S)=  0.000E+00 dE (1.order)= 0.000E+00
 bond charge predicted
       N       E                     dE             d eps       ncg     rms          rms(c)
DAV:   1    -0.351369000333E+02   -0.25337E-02   -0.20059E-03  3264   0.218E-01    0.120E-02
DAV:   2    -0.351369031250E+02   -0.30917E-05   -0.36378E-05  4360   0.304E-02    0.677E-03
DAV:   3    -0.351369031755E+02   -0.50555E-07   -0.43983E-06  3368   0.113E-02
  25 F= -.35136903E+02 E0= -.35130279E+02  d E =-.253632E-02
quench:  g(F)=  0.000E+00 g(S)=  0.000E+00 dE (1.order)= 0.000E+00
 bond charge predicted
       N       E                     dE             d eps       ncg     rms          rms(c)
DAV:   1    -0.351419436191E+02   -0.50405E-02   -0.75079E-03  3264   0.422E-01    0.212E-02
DAV:   2    -0.351419545218E+02   -0.10903E-04   -0.12960E-04  4256   0.566E-02    0.117E-02
DAV:   3    -0.351419542968E+02    0.22496E-06   -0.41655E-06  4160   0.109E-02
  26 F= -.35141954E+02 E0= -.35135358E+02  d E =-.505112E-02
quench:  g(F)=  0.000E+00 g(S)=  0.000E+00 dE (1.order)= 0.000E+00
 bond charge predicted
       N       E                     dE             d eps       ncg     rms          rms(c)
DAV:   1    -0.351500181288E+02   -0.80636E-02   -0.18813E-02  3264   0.668E-01    0.331E-02
DAV:   2    -0.351500474363E+02   -0.29308E-04   -0.34606E-04  4304   0.940E-02    0.218E-02
DAV:   3    -0.351500469554E+02    0.48098E-06   -0.52189E-05  4872   0.372E-02    0.177E-02
DAV:   4    -0.351500446461E+02    0.23092E-05   -0.22607E-05  4848   0.220E-02    0.127E-02
DAV:   5    -0.351500437084E+02    0.93773E-06   -0.44174E-06  3144   0.106E-02
  27 F= -.35150044E+02 E0= -.35143493E+02  d E =-.808941E-02
quench:  g(F)=  0.000E+00 g(S)=  0.000E+00 dE (1.order)= 0.000E+00
 bond charge predicted
       N       E                     dE             d eps       ncg     rms          rms(c)
DAV:   1    -0.351610349308E+02   -0.10990E-01   -0.34295E-02  3264   0.903E-01    0.471E-02
DAV:   2    -0.351610892423E+02   -0.54311E-04   -0.62041E-04  4264   0.124E-01    0.221E-02
DAV:   3    -0.351610890862E+02    0.15611E-06   -0.32466E-05  4976   0.297E-02    0.173E-02
DAV:   4    -0.351610888375E+02    0.24873E-06   -0.19883E-05  4888   0.210E-02    0.144E-02
DAV:   5    -0.351610874078E+02    0.14297E-05   -0.11444E-05  3960   0.157E-02    0.758E-03
DAV:   6    -0.351610873974E+02    0.10435E-07   -0.24736E-06  2416   0.905E-03
  28 F= -.35161087E+02 E0= -.35154602E+02  d E =-.110437E-01
quench:  g(F)=  0.000E+00 g(S)=  0.000E+00 dE (1.order)= 0.000E+00
 bond charge predicted
       N       E                     dE             d eps       ncg     rms          rms(c)
DAV:   1    -0.351735941657E+02   -0.12507E-01   -0.43038E-02  3264   0.101E+00    0.576E-02
DAV:   2    -0.351736701472E+02   -0.75982E-04   -0.86061E-04  4296   0.145E-01    0.255E-02
DAV:   3    -0.351736699271E+02    0.22009E-06   -0.30773E-05  4768   0.288E-02    0.191E-02
DAV:   4    -0.351736701437E+02   -0.21653E-06   -0.13882E-05  4640   0.181E-02    0.153E-02
DAV:   5    -0.351736696485E+02    0.49515E-06   -0.21218E-05  4680   0.210E-02    0.109E-02
DAV:   6    -0.351736688608E+02    0.78769E-06   -0.60262E-06  3568   0.124E-02
  29 F= -.35173669E+02 E0= -.35167267E+02  d E =-.125815E-01
quench:  g(F)=  0.000E+00 g(S)=  0.000E+00 dE (1.order)= 0.000E+00
 bond charge predicted
       N       E                     dE             d eps       ncg     rms          rms(c)
DAV:   1    -0.351851718102E+02   -0.11502E-01   -0.38447E-02  3264   0.953E-01    0.589E-02
DAV:   2    -0.351852545691E+02   -0.82759E-04   -0.92215E-04  4272   0.147E-01    0.262E-02
DAV:   3    -0.351852548932E+02   -0.32412E-06   -0.35235E-05  4960   0.315E-02    0.193E-02
DAV:   4    -0.351852555660E+02   -0.67276E-06   -0.23544E-05  4896   0.231E-02    0.170E-02
DAV:   5    -0.351852537422E+02    0.18238E-05   -0.19039E-05  4592   0.199E-02    0.904E-03
DAV:   6    -0.351852537894E+02   -0.47170E-07   -0.30862E-06  2528   0.948E-03
  30 F= -.35185254E+02 E0= -.35178941E+02  d E =-.115849E-01
quench:  g(F)=  0.000E+00 g(S)=  0.000E+00 dE (1.order)= 0.000E+00
 bond charge predicted
       N       E                     dE             d eps       ncg     rms          rms(c)
DAV:   1    -0.351851633291E+02    0.90413E-04   -0.72228E-05  3296   0.413E-02    0.316E-03
DAV:   2    -0.351851633956E+02   -0.66555E-07   -0.71052E-07  2416   0.468E-03
  31 F= -.35185163E+02 E0= -.35178850E+02  d E =0.903938E-04
quench:  g(F)=  0.000E+00 g(S)=  0.000E+00 dE (1.order)= 0.000E+00
 bond charge predicted
       N       E                     dE             d eps       ncg     rms          rms(c)
DAV:   1    -0.351855586279E+02   -0.39530E-03   -0.10384E-04  3280   0.499E-02    0.329E-03
DAV:   2    -0.351855587772E+02   -0.14926E-06   -0.18832E-06  3536   0.734E-03
  32 F= -.35185559E+02 E0= -.35179246E+02  d E =-.395382E-03
quench:  g(F)=  0.000E+00 g(S)=  0.000E+00 dE (1.order)= 0.000E+00
 bond charge predicted
       N       E                     dE             d eps       ncg     rms          rms(c)
DAV:   1    -0.351866824953E+02   -0.11239E-02   -0.37880E-04  3264   0.949E-02    0.532E-03
DAV:   2    -0.351866833217E+02   -0.82635E-06   -0.97270E-06  4296   0.162E-02
  33 F= -.35186683E+02 E0= -.35180377E+02  d E =-.112454E-02
quench:  g(F)=  0.000E+00 g(S)=  0.000E+00 dE (1.order)= 0.000E+00
 bond charge predicted
       N       E                     dE             d eps       ncg     rms          rms(c)
DAV:   1    -0.351888229586E+02   -0.21405E-02   -0.12839E-03  3264   0.175E-01    0.889E-03
DAV:   2    -0.351888253917E+02   -0.24331E-05   -0.28772E-05  4360   0.280E-02    0.741E-03
DAV:   3    -0.351888251054E+02    0.28631E-06   -0.72624E-06  3760   0.142E-02
  34 F= -.35188825E+02 E0= -.35182530E+02  d E =-.214178E-02
quench:  g(F)=  0.000E+00 g(S)=  0.000E+00 dE (1.order)= 0.000E+00
 bond charge predicted
       N       E                     dE             d eps       ncg     rms          rms(c)
DAV:   1    -0.351921772775E+02   -0.33519E-02   -0.31991E-03  3264   0.276E-01    0.134E-02
DAV:   2    -0.351921822155E+02   -0.49380E-05   -0.58612E-05  4288   0.380E-02    0.859E-03
DAV:   3    -0.351921821298E+02    0.85682E-07   -0.24636E-06  3352   0.874E-03
  35 F= -.35192182E+02 E0= -.35185906E+02  d E =-.335702E-02
quench:  g(F)=  0.000E+00 g(S)=  0.000E+00 dE (1.order)= 0.000E+00
 bond charge predicted
       N       E                     dE             d eps       ncg     rms          rms(c)
DAV:   1    -0.351966110978E+02   -0.44289E-02   -0.55476E-03  3264   0.363E-01    0.182E-02
DAV:   2    -0.351966202538E+02   -0.91560E-05   -0.10881E-04  4312   0.515E-02    0.118E-02
DAV:   3    -0.351966201722E+02    0.81597E-07   -0.10847E-05  4608   0.176E-02    0.994E-03
DAV:   4    -0.351966197161E+02    0.45606E-06   -0.40706E-06  3192   0.105E-02
  36 F= -.35196620E+02 E0= -.35190370E+02  d E =-.443759E-02
quench:  g(F)=  0.000E+00 g(S)=  0.000E+00 dE (1.order)= 0.000E+00
 bond charge predicted
       N       E                     dE             d eps       ncg     rms          rms(c)
DAV:   1    -0.352013422325E+02   -0.47221E-02   -0.64137E-03  3264   0.389E-01    0.209E-02
DAV:   2    -0.352013542418E+02   -0.12009E-04   -0.13645E-04  4264   0.571E-02    0.110E-02
DAV:   3    -0.352013542973E+02   -0.55485E-07   -0.41497E-06  4104   0.105E-02
  37 F= -.35201354E+02 E0= -.35195136E+02  d E =-.473458E-02
quench:  g(F)=  0.000E+00 g(S)=  0.000E+00 dE (1.order)= 0.000E+00
 bond charge predicted
       N       E                     dE             d eps       ncg     rms          rms(c)
DAV:   1    -0.352047368410E+02   -0.33826E-02   -0.48851E-03  3304   0.336E-01    0.194E-02
DAV:   2    -0.352047488029E+02   -0.11962E-04   -0.13329E-04  4328   0.560E-02    0.124E-02
DAV:   3    -0.352047489490E+02   -0.14612E-06   -0.10014E-05  4472   0.171E-02    0.926E-03
DAV:   4    -0.352047488633E+02    0.85698E-07   -0.60128E-06  3552   0.125E-02
  38 F= -.35204749E+02 E0= -.35198555E+02  d E =-.339457E-02
quench:  g(F)=  0.000E+00 g(S)=  0.000E+00 dE (1.order)= 0.000E+00
 bond charge predicted
       N       E                     dE             d eps       ncg     rms          rms(c)
DAV:   1    -0.352045436323E+02    0.20532E-03   -0.21169E-03  3288   0.220E-01    0.123E-02
DAV:   2    -0.352045499627E+02   -0.63304E-05   -0.66510E-05  4304   0.389E-02    0.653E-03
DAV:   3    -0.352045499204E+02    0.42263E-07   -0.25544E-06  3328   0.935E-03
  39 F= -.35204550E+02 E0= -.35198356E+02  d E =0.198943E-03
quench:  g(F)=  0.000E+00 g(S)=  0.000E+00 dE (1.order)= 0.000E+00
 bond charge predicted
       N       E                     dE             d eps       ncg     rms          rms(c)
DAV:   1    -0.352046883983E+02   -0.13844E-03   -0.37387E-05  3312   0.299E-02    0.423E-03
DAV:   2    -0.352046886022E+02   -0.20398E-06   -0.31905E-06  2408   0.961E-03
  40 F= -.35204689E+02 E0= -.35198495E+02  d E =-.138682E-03
quench:  g(F)=  0.000E+00 g(S)=  0.000E+00 dE (1.order)= 0.000E+00
 bond charge predicted
       N       E                     dE             d eps       ncg     rms          rms(c)
DAV:   1    -0.352050516392E+02   -0.36324E-03   -0.75727E-05  3264   0.426E-02    0.283E-03
DAV:   2    -0.352050517719E+02   -0.13262E-06   -0.15254E-06  2768   0.700E-03
  41 F= -.35205052E+02 E0= -.35198860E+02  d E =-.363170E-03
quench:  g(F)=  0.000E+00 g(S)=  0.000E+00 dE (1.order)= 0.000E+00
 bond charge predicted
       N       E                     dE             d eps       ncg     rms          rms(c)
DAV:   1    -0.352056743332E+02   -0.62269E-03   -0.14537E-04  3264   0.587E-02    0.342E-03
DAV:   2    -0.352056745983E+02   -0.26516E-06   -0.32130E-06  3848   0.917E-03
  42 F= -.35205675E+02 E0= -.35199486E+02  d E =-.622826E-03
quench:  g(F)=  0.000E+00 g(S)=  0.000E+00 dE (1.order)= 0.000E+00
 bond charge predicted
       N       E                     dE             d eps       ncg     rms          rms(c)
DAV:   1    -0.352064460449E+02   -0.77171E-03   -0.21067E-04  3272   0.706E-02    0.373E-03
DAV:   2    -0.352064464544E+02   -0.40949E-06   -0.47611E-06  4072   0.109E-02
  43 F= -.35206446E+02 E0= -.35200262E+02  d E =-.771856E-03
quench:  g(F)=  0.000E+00 g(S)=  0.000E+00 dE (1.order)= 0.000E+00
 bond charge predicted
       N       E                     dE             d eps       ncg     rms          rms(c)
DAV:   1    -0.352070638253E+02   -0.61778E-03   -0.20390E-04  3312   0.689E-02    0.387E-03
DAV:   2    -0.352070643645E+02   -0.53923E-06   -0.60946E-06  4256   0.121E-02
  44 F= -.35207064E+02 E0= -.35200884E+02  d E =-.617910E-03
quench:  g(F)=  0.000E+00 g(S)=  0.000E+00 dE (1.order)= 0.000E+00
 bond charge predicted
       N       E                     dE             d eps       ncg     rms          rms(c)
DAV:   1    -0.352072702371E+02   -0.20641E-03   -0.16757E-04  3352   0.615E-02    0.371E-03
DAV:   2    -0.352072708513E+02   -0.61424E-06   -0.63171E-06  3976   0.123E-02
  45 F= -.35207271E+02 E0= -.35201091E+02  d E =-.206487E-03
quench:  g(F)=  0.000E+00 g(S)=  0.000E+00 dE (1.order)= 0.000E+00
 bond charge predicted
       N       E                     dE             d eps       ncg     rms          rms(c)
DAV:   1    -0.352072735745E+02   -0.33374E-05   -0.21070E-04  3320   0.694E-02    0.396E-03
DAV:   2    -0.352072742534E+02   -0.67898E-06   -0.74316E-06  4184   0.134E-02
  46 F= -.35207274E+02 E0= -.35201096E+02  d E =-.340214E-05
quench:  g(F)=  0.000E+00 g(S)=  0.000E+00 dE (1.order)= 0.000E+00
 reached required accuracy - stopping structural energy minimisation
