 running on  192 total cores
 distrk:  each k-point on  192 cores,    1 groups
 distr:  one band on   24 cores,    8 groups
 using from now: INCAR     
 vasp.5.4.4.18Apr17-6-g9f103f2a35 (build Oct 01 2024 10:11:53) complex          
  
 POSCAR found type information on POSCAR  Mo S  Te
 POSCAR found :  3 types and       6 ions
 scaLAPACK will be used
 LDA part: xc-table for Pade appr. of Perdew
 WARNING: stress and forces are not correct
 POSCAR, INCAR and KPOINTS ok, starting setup
 FFT: planning ...
 WAVECAR not read
 charge-density read from file: unknown                                 
 WARNING: random wavefunctions but no delay for mixing, default for NELMDL
 entering main loop
       N       E                     dE             d eps       ncg     rms          rms(c)
DAV:   1     0.261169122562E+03    0.26117E+03   -0.12922E+04  3840   0.124E+03
DAV:   2    -0.507716707914E+01   -0.26625E+03   -0.25824E+03  6024   0.206E+02
DAV:   3    -0.382802493868E+02   -0.33203E+02   -0.32849E+02  5040   0.824E+01
DAV:   4    -0.393949735306E+02   -0.11147E+01   -0.11090E+01  5856   0.177E+01
DAV:   5    -0.394228456978E+02   -0.27872E-01   -0.27855E-01  5752   0.264E+00
DAV:   6    -0.394233066101E+02   -0.46091E-03   -0.46063E-03  5944   0.317E-01
DAV:   7    -0.394233196660E+02   -0.13056E-04   -0.13055E-04  5800   0.518E-02
DAV:   8    -0.394233200097E+02   -0.34368E-06   -0.34362E-06  6032   0.725E-03
DAV:   9    -0.394233200179E+02   -0.81991E-08   -0.82292E-08  3856   0.124E-03
   1 F= -.39423320E+02 E0= -.39423320E+02  d E =0.000000E+00
