Automatically generated mesh
      13
Reciprocal lattice
    0.00000000000000    0.00000000000000    0.00000000000000             1
    0.20000000000000    0.00000000000001    0.00000000000000             2
    0.00000000000000    0.20000000000000    0.00000000000000             2
   -0.20000000000000    0.20000000000001    0.00000000000000             2
    0.40000000000000    0.00000000000001    0.00000000000000             2
    0.00000000000000    0.40000000000000    0.00000000000000             2
   -0.40000000000000    0.40000000000000    0.00000000000000             2
    0.20000000000000    0.20000000000001    0.00000000000000             2
   -0.20000000000000    0.40000000000001    0.00000000000000             2
   -0.40000000000000    0.20000000000000    0.00000000000000             2
    0.40000000000000    0.20000000000001    0.00000000000000             2
   -0.20000000000000   -0.40000000000000    0.00000000000000             2
    0.40000000000000    0.40000000000000    0.00000000000000             2
